
                                 *****************
                                 * O   R   C   A *
                                 *****************

                                            #,                                       
                                            ###                                      
                                            ####                                     
                                            #####                                    
                                            ######                                   
                                           ########,                                 
                                     ,,################,,,,,                         
                               ,,#################################,,                 
                          ,,##########################################,,             
                       ,#########################################, ''#####,          
                    ,#############################################,,   '####,        
                  ,##################################################,,,,####,       
                ,###########''''           ''''###############################       
              ,#####''   ,,,,##########,,,,          '''####'''          '####       
            ,##' ,,,,###########################,,,                        '##       
           ' ,,###''''                  '''############,,,                           
         ,,##''                                '''############,,,,        ,,,,,,###''
      ,#''                                            '''#######################'''  
     '                                                          ''''####''''         
             ,#######,   #######,   ,#######,      ##                                
            ,#'     '#,  ##    ##  ,#'     '#,    #''#        ######   ,####,        
            ##       ##  ##   ,#'  ##            #'  '#       #        #'  '#        
            ##       ##  #######   ##           ,######,      #####,   #    #        
            '#,     ,#'  ##    ##  '#,     ,#' ,#      #,         ##   #,  ,#        
             '#######'   ##     ##  '#######'  #'      '#     #####' # '####'        



                  #######################################################
                  #                        -***-                        #
                  #          Department of theory and spectroscopy      #
                  #    Directorship and core code : Frank Neese         #
                  #        Max Planck Institute fuer Kohlenforschung    #
                  #                Kaiser Wilhelm Platz 1               #
                  #                 D-45470 Muelheim/Ruhr               #
                  #                      Germany                        #
                  #                                                     #
                  #                  All rights reserved                #
                  #                        -***-                        #
                  #######################################################


                         Program Version 5.0.4 -  RELEASE  -


 With contributions from (in alphabetic order):
   Daniel Aravena         : Magnetic Suceptibility
   Michael Atanasov       : Ab Initio Ligand Field Theory (pilot matlab implementation)
   Alexander A. Auer      : GIAO ZORA, VPT2 properties, NMR spectrum
   Ute Becker             : Parallelization
   Giovanni Bistoni       : ED, misc. LED, open-shell LED, HFLD
   Martin Brehm           : Molecular dynamics
   Dmytro Bykov           : SCF Hessian
   Vijay G. Chilkuri      : MRCI spin determinant printing, contributions to CSF-ICE
   Dipayan Datta          : RHF DLPNO-CCSD density
   Achintya Kumar Dutta   : EOM-CC, STEOM-CC
   Dmitry Ganyushin       : Spin-Orbit,Spin-Spin,Magnetic field MRCI
   Miquel Garcia          : C-PCM and meta-GGA Hessian, CC/C-PCM, Gaussian charge scheme
   Yang Guo               : DLPNO-NEVPT2, F12-NEVPT2, CIM, IAO-localization
   Andreas Hansen         : Spin unrestricted coupled pair/coupled cluster methods
   Benjamin Helmich-Paris : MC-RPA, TRAH-SCF, COSX integrals
   Lee Huntington         : MR-EOM, pCC
   Robert Izsak           : Overlap fitted RIJCOSX, COSX-SCS-MP3, EOM
   Marcus Kettner         : VPT2
   Christian Kollmar      : KDIIS, OOCD, Brueckner-CCSD(T), CCSD density, CASPT2, CASPT2-K
   Simone Kossmann        : Meta GGA functionals, TD-DFT gradient, OOMP2, MP2 Hessian
   Martin Krupicka        : Initial AUTO-CI
   Lucas Lang             : DCDCAS
   Marvin Lechner         : AUTO-CI (C++ implementation), FIC-MRCC
   Dagmar Lenk            : GEPOL surface, SMD
   Dimitrios Liakos       : Extrapolation schemes; Compound Job, initial MDCI parallelization
   Dimitrios Manganas     : Further ROCIS development; embedding schemes
   Dimitrios Pantazis     : SARC Basis sets
   Anastasios Papadopoulos: AUTO-CI, single reference methods and gradients
   Taras Petrenko         : DFT Hessian,TD-DFT gradient, ASA, ECA, R-Raman, ABS, FL, XAS/XES, NRVS
   Peter Pinski           : DLPNO-MP2, DLPNO-MP2 Gradient
   Christoph Reimann      : Effective Core Potentials
   Marius Retegan         : Local ZFS, SOC
   Christoph Riplinger    : Optimizer, TS searches, QM/MM, DLPNO-CCSD(T), (RO)-DLPNO pert. Triples
   Tobias Risthaus        : Range-separated hybrids, TD-DFT gradient, RPA, STAB
   Michael Roemelt        : Original ROCIS implementation
   Masaaki Saitow         : Open-shell DLPNO-CCSD energy and density
   Barbara Sandhoefer     : DKH picture change effects
   Avijit Sen             : IP-ROCIS
   Kantharuban Sivalingam : CASSCF convergence, NEVPT2, FIC-MRCI
   Bernardo de Souza      : ESD, SOC TD-DFT
   Georgi Stoychev        : AutoAux, RI-MP2 NMR, DLPNO-MP2 response
   Willem Van den Heuvel  : Paramagnetic NMR
   Boris Wezisla          : Elementary symmetry handling
   Frank Wennmohs         : Technical directorship


 We gratefully acknowledge several colleagues who have allowed us to
 interface, adapt or use parts of their codes:
   Stefan Grimme, W. Hujo, H. Kruse, P. Pracht,  : VdW corrections, initial TS optimization,
                  C. Bannwarth, S. Ehlert          DFT functionals, gCP, sTDA/sTD-DF
   Ed Valeev, F. Pavosevic, A. Kumar             : LibInt (2-el integral package), F12 methods
   Garnet Chan, S. Sharma, J. Yang, R. Olivares  : DMRG
   Ulf Ekstrom                                   : XCFun DFT Library
   Mihaly Kallay                                 : mrcc  (arbitrary order and MRCC methods)
   Jiri Pittner, Ondrej Demel                    : Mk-CCSD
   Frank Weinhold                                : gennbo (NPA and NBO analysis)
   Christopher J. Cramer and Donald G. Truhlar   : smd solvation model
   Lars Goerigk                                  : TD-DFT with DH, B97 family of functionals
   V. Asgeirsson, H. Jonsson                     : NEB implementation
   FAccTs GmbH                                   : IRC, NEB, NEB-TS, DLPNO-Multilevel, CI-OPT
                                                   MM, QMMM, 2- and 3-layer-ONIOM, Crystal-QMMM,
                                                   LR-CPCM, SF, NACMEs, symmetry and pop. for TD-DFT,
                                                   nearIR, NL-DFT gradient (VV10), updates on ESD,
                                                   ML-optimized integration grids
   S Lehtola, MJT Oliveira, MAL Marques          : LibXC Library
   Liviu Ungur et al                             : ANISO software


 Your calculation uses the libint2 library for the computation of 2-el integrals
 For citations please refer to: http://libint.valeyev.net

 Your ORCA version has been built with support for libXC version: 5.1.0
 For citations please refer to: https://tddft.org/programs/libxc/

 This ORCA versions uses:
   CBLAS   interface :  Fast vector & matrix operations
   LAPACKE interface :  Fast linear algebra routines
   SCALAPACK package :  Parallel linear algebra routines
   Shared memory     :  Shared parallel matrices
   BLAS/LAPACK       :  OpenBLAS 0.3.15  USE64BITINT DYNAMIC_ARCH NO_AFFINITY Prescott SINGLE_THREADED
        Core in use  :  Prescott
   Copyright (c) 2011-2014, The OpenBLAS Project




***************************************
The coordinates will be read from file: cis1.xyz
***************************************


Your calculation utilizes a Nudged-Elastic-Band implementation
 by V.Asgeirsson, C. Riplinger & H. Jonsson
Please cite in your paper:
 V. Asgeirsson et al., in prep. (2019)
   

================================================================================

----- Orbital basis set information -----
Your calculation utilizes the basis: 6-31G(d,p)
   H-He, Li-Ne : W. J. Hehre, R. Ditchfield and J.A. Pople, J. Chem. Phys. 56, 2257 (1972).
                 Note: He and Ne are unpublished basis sets taken from the Gaussian program.
                 Note: Li and B from J. D. Dill and J. A. Pople, J. Chem. Phys. 62, 2921 (1975).
   Na - Ar     : M. M. Francl, W. J. Pietro, W. J. Hehre, J. S. Binkley, M. S. Gordon, 
                 D. J. DeFrees and J. A. Pople, J. Chem. Phys. 77, 3654 (1982).
   K - Zn      : V. A. Rassolov, J. A. Pople, M. A. Ratner, and T. L. Windus, J. Chem. Phys. 109, 1223 (1998).

----- AuxJ basis set information -----
Your calculation utilizes the auxiliary basis: def2/J
   F. Weigend, Phys. Chem. Chem. Phys. 8, 1057 (2006).

================================================================================
                                        WARNINGS
                       Please study these warnings very carefully!
================================================================================


WARNING: Geometry Optimization
  ===> : Switching off AutoStart
         For restart on a previous wavefunction, please use MOREAD

INFO   : the flag for use of the SHARK integral package has been found!

================================================================================
                                       INPUT FILE
================================================================================
NAME = orca.inp
|  1> !UKS B3LYP 6-31G(d,p) NEB-TS FREQ tightscf
|  2> 
|  3> %PAL NPROCS 128 END
|  4> %maxcore 3700
|  5> 
|  6> %NEB 
|  7> Restart_ALLXYZFile "initial_path.allxyz"
|  8> Nimages 8
|  9> END
| 10> 
| 11> * xyzfile 0 1 cis1.xyz *
| 12> 
| 13>                          ****END OF INPUT****
================================================================================


--------------------------------------------------------------------------------
                        Nudged Elastic Band Calculation
--------------------------------------------------------------------------------

Reading restart file initial_path.allxyz
Number of images (incl. end points)     ....  10
Number of intermediate images           ....  8
Number of optimized images              ....  8
Optimization of end points before NEB   ....  NO
Use existing gbw files for MO input     ....  NO
Number of atoms                         ....  47
Number of (active) degrees of freedom   ....  141
Constrained atoms                       ....  None

Reaction path read from file: initial_path.allxyz
----------------------------------------
  REACTANT (ANGSTROEM)
----------------------------------------
C      2.259261    -2.646361    -0.072355 
C      2.057256    -1.417311     0.817341 
C      1.732171    -1.801719     2.284673 
C      0.230808    -1.884373     2.267853 
C     -0.279208    -1.186874     1.170668 
C      0.838299    -0.563128     0.432691 
C      0.865948     0.595328    -0.298278 
C      1.880356     1.043752    -1.298094 
C      3.060217     0.466087    -1.783353 
C      3.756619     1.083873    -2.826401 
C      3.292928     2.269658    -3.404299 
C      2.118228     2.859913    -2.935295 
C      1.423957     2.250716    -1.891652 
C      0.193185     2.668619    -1.222212 
C     -0.557025     3.835178    -1.362945 
C     -1.648626     4.043777    -0.516990 
C     -1.961978     3.104150     0.471344 
C     -1.214668     1.930895     0.610044 
C     -0.147548     1.686326    -0.260982 
C     -1.670384    -1.311064     0.836933 
C     -2.243328    -0.839985    -0.373994 
C     -3.586779    -1.005754    -0.636406 
C     -4.431786    -1.646465     0.299717 
C     -3.903197    -2.147166     1.467756 
C     -2.517842    -2.017845     1.759195 
C     -1.959975    -2.618210     2.921829 
C     -0.602682    -2.585251     3.158910 
H      3.151282    -3.191151     0.252697 
H      2.384539    -2.358778    -1.118828 
H      1.395402    -3.312833    -0.002664 
H      2.098799    -0.994248     2.930912 
H      2.218317    -2.732247     2.596830 
H      3.470127    -0.429798    -1.341613 
H      4.677054     0.632835    -3.186979 
H      3.847521     2.732156    -4.216084 
H      1.748689     3.780065    -3.380423 
H     -0.284505     4.581772    -2.104179 
H     -2.242888     4.948427    -0.612162 
H     -2.794249     3.287506     1.145135 
H     -1.465339     1.230570     1.396658 
H     -1.608113    -0.351755    -1.102226 
H     -3.999872    -0.641585    -1.572819 
H     -5.491036    -1.757266     0.085916 
H     -4.536885    -2.668497     2.181089 
H     -2.623871    -3.143925     3.603622 
H     -0.177821    -3.094112     4.020024 
F      3.248639    -0.683904     0.809397 
----------------------------------------
  IMAGE 2 (ANGSTROEM)
----------------------------------------
C      2.674662    -2.361562     0.427776 
C      2.067284    -1.141231     1.119683 
C      1.576727    -1.541189     2.546471 
C      0.120545    -1.839298     2.322030 
C     -0.337573    -1.138227     1.202706 
C      0.794546    -0.483186     0.540843 
C      0.790208     0.626804    -0.272885 
C      1.689004     0.947366    -1.403289 
C      2.616884     0.159934    -2.090618 
C      3.185375     0.628976    -3.275786 
C      2.826309     1.876837    -3.796061 
C      1.882929     2.669264    -3.136310 
C      1.314604     2.203167    -1.951127 
C      0.258453     2.770906    -1.112027 
C     -0.311456     4.043175    -1.104773 
C     -1.234766     4.365597    -0.107236 
C     -1.578825     3.423351     0.870987 
C     -1.020674     2.142448     0.861703 
C     -0.106324     1.801474    -0.141105 
C     -1.684139    -1.334753     0.731854 
C     -2.216851    -0.740565    -0.442284 
C     -3.502840    -1.015454    -0.859856 
C     -4.326030    -1.902391    -0.129177 
C     -3.838349    -2.506945     1.007142 
C     -2.517135    -2.249734     1.465651 
C     -2.004606    -2.918813     2.611993 
C     -0.706137    -2.725068     3.035962 
H      3.501978    -2.727168     1.044684 
H      3.083700    -2.111943    -0.549156 
H      1.938871    -3.160769     0.311294 
H      1.714446    -0.672648     3.202449 
H      2.142536    -2.378748     2.967170 
H      2.873627    -0.828060    -1.739386 
H      3.898676     0.004348    -3.806713 
H      3.264212     2.218151    -4.729758 
H      1.576281     3.621370    -3.561034 
H     -0.018050     4.784949    -1.843329 
H     -1.669915     5.360665    -0.076501 
H     -2.275765     3.697481     1.658094 
H     -1.279970     1.432993     1.640987 
H     -1.601474    -0.063330    -1.019116 
H     -3.883457    -0.548580    -1.763979 
H     -5.335002    -2.112789    -0.473218 
H     -4.455440    -3.205953     1.566718 
H     -2.654261    -3.615072     3.136727 
H     -0.319531    -3.265339     3.896049 
F      3.086712    -0.190441     1.215752 
----------------------------------------
  IMAGE 3 (ANGSTROEM)
----------------------------------------
C      2.984231    -1.904595     0.579583 
C      2.034820    -0.961280     1.309534 
C      1.492144    -1.594078     2.627092 
C      0.058485    -1.911276     2.322392 
C     -0.385370    -1.147851     1.235452 
C      0.741998    -0.451995     0.630762 
C      0.722678     0.618592    -0.247314 
C      1.564299     0.844031    -1.432427 
C      2.312659    -0.062913    -2.193690 
C      2.850844     0.340759    -3.416728 
C      2.612572     1.627882    -3.911817 
C      1.808521     2.522732    -3.198181 
C      1.277991     2.129302    -1.970556 
C      0.316526     2.786066    -1.082258 
C     -0.141935     4.102020    -1.040178 
C     -0.988329     4.493688     0.000495 
C     -1.368334     3.576833     0.990744 
C     -0.921888     2.254754     0.951906 
C     -0.087490     1.844926    -0.095085 
C     -1.715174    -1.357053     0.711212 
C     -2.237197    -0.707186    -0.437762 
C     -3.491693    -1.013106    -0.924159 
C     -4.298978    -1.982231    -0.287919 
C     -3.823738    -2.636356     0.828411 
C     -2.533149    -2.352869     1.350772 
C     -2.034474    -3.078325     2.468875 
C     -0.758219    -2.867289     2.948321 
H      3.763491    -2.225614     1.278480 
H      3.472656    -1.383733    -0.243194 
H      2.465690    -2.789879     0.200886 
H      1.573297    -0.824460     3.404417 
H      2.072952    -2.461707     2.955891 
H      2.430371    -1.089844    -1.872917 
H      3.433108    -0.365833    -4.002125 
H      3.019575     1.916974    -4.876634 
H      1.572019     3.496953    -3.617928 
H      0.180513     4.825330    -1.785230 
H     -1.332313     5.522601     0.057884 
H     -1.999912     3.905092     1.811927 
H     -1.196552     1.562709     1.742240 
H     -1.637326     0.037272    -0.943746 
H     -3.860109    -0.506728    -1.813008 
H     -5.282118    -2.217000    -0.684448 
H     -4.427077    -3.396640     1.318062 
H     -2.674217    -3.830571     2.923587 
H     -0.378659    -3.449525     3.783420 
F      2.812814     0.161422     1.644957 
----------------------------------------
  IMAGE 4 (ANGSTROEM)
----------------------------------------
C      3.120987    -1.514818     0.708808 
C      1.975038    -0.837421     1.444120 
C      1.443288    -1.661379     2.652657 
C      0.020904    -1.983004     2.302228 
C     -0.426696    -1.166047     1.251909 
C      0.689558    -0.427877     0.696963 
C      0.680409     0.628142    -0.210677 
C      1.483113     0.780892    -1.428952 
C      2.140119    -0.190785    -2.197125 
C      2.619228     0.142911    -3.464751 
C      2.420837     1.426367    -3.988633 
C      1.714821     2.389544    -3.259898 
C      1.233230     2.065069    -1.992579 
C      0.353661     2.792904    -1.075816 
C     -0.013335     4.137347    -1.024051 
C     -0.772306     4.593809     0.057370 
C     -1.154207     3.715518     1.081407 
C     -0.798802     2.366761     1.036388 
C     -0.058690     1.891376    -0.053391 
C     -1.741082    -1.389135     0.687673 
C     -2.257953    -0.696078    -0.435732 
C     -3.490240    -1.018650    -0.970945 
C     -4.277637    -2.045513    -0.405998 
C     -3.805576    -2.743539     0.684473 
C     -2.536647    -2.446824     1.251189 
C     -2.038058    -3.218492     2.337678 
C     -0.777958    -2.996729     2.853729 
H      3.929208    -1.703159     1.423238 
H      3.504672    -0.858835    -0.073531 
H      2.810713    -2.466827     0.268420 
H      1.498875    -1.001878     3.527432 
H      2.046618    -2.549001     2.871114 
H      2.231354    -1.210007    -1.838619 
H      3.120704    -0.613062    -4.063253 
H      2.779840     1.661119    -4.986821 
H      1.511437     3.363139    -3.697853 
H      0.319130     4.832660    -1.790535 
H     -1.039585     5.645105     0.122289 
H     -1.707390     4.096045     1.935901 
H     -1.057253     1.704260     1.857339 
H     -1.672501     0.094271    -0.886158 
H     -3.853670    -0.480731    -1.842155 
H     -5.244763    -2.289726    -0.836258 
H     -4.392502    -3.548308     1.119009 
H     -2.661628    -4.015218     2.735962 
H     -0.395276    -3.615395     3.661425 
F      2.526013     0.361199     1.955008 
----------------------------------------
  IMAGE 5 (ANGSTROEM)
----------------------------------------
C      3.159424    -1.217662     0.858325 
C      1.908196    -0.731949     1.572142 
C      1.398904    -1.678485     2.691911 
C      0.010009    -2.061752     2.268191 
C     -0.429313    -1.235899     1.207715 
C      0.655947    -0.433511     0.738791 
C      0.658562     0.643727    -0.197528 
C      1.373809     0.723400    -1.462624 
C      1.961190    -0.288437    -2.237535 
C      2.412156     0.011418    -3.523803 
C      2.270128     1.303455    -4.049168 
C      1.646056     2.312433    -3.304307 
C      1.181552     2.023131    -2.024487 
C      0.404473     2.810656    -1.063919 
C      0.074164     4.162606    -1.021233 
C     -0.602029     4.663183     0.098146 
C     -0.927869     3.823530     1.173135 
C     -0.605560     2.466144     1.142071 
C      0.036755     1.945654     0.010354 
C     -1.732385    -1.471649     0.616512 
C     -2.245886    -0.748493    -0.486085 
C     -3.482501    -1.052899    -1.027272 
C     -4.265538    -2.096365    -0.489669 
C     -3.787981    -2.831001     0.574345 
C     -2.520837    -2.548527     1.149589 
C     -2.025082    -3.337634     2.227456 
C     -0.777816    -3.101055     2.775989 
H      3.969210    -1.315102     1.588899 
H      3.464649    -0.497711     0.096518 
H      2.992359    -2.190572     0.387844 
H      1.383285    -1.092993     3.619807 
H      2.052065    -2.540571     2.862137 
H      2.032802    -1.302821    -1.856426 
H      2.856493    -0.770349    -4.133729 
H      2.617476     1.515202    -5.056791 
H      1.507527     3.300614    -3.735927 
H      0.358374     4.831116    -1.830069 
H     -0.850206     5.719950     0.147924 
H     -1.414150     4.240209     2.050940 
H     -0.817008     1.827914     1.994868 
H     -1.658696     0.054901    -0.913267 
H     -3.850514    -0.487506    -1.878619 
H     -5.237877    -2.323134    -0.918675 
H     -4.375980    -3.646509     0.988962 
H     -2.642663    -4.151125     2.600385 
H     -0.407249    -3.721645     3.588325 
F      2.271571     0.496113     2.179853 
----------------------------------------
  IMAGE 6 (ANGSTROEM)
----------------------------------------
C      3.145546    -0.971205     1.019788 
C      1.830726    -0.624850     1.708140 
C      1.354929    -1.676015     2.739240 
C      0.021612    -2.144154     2.221177 
C     -0.390553    -1.341796     1.119129 
C      0.635857    -0.437350     0.774992 
C      0.648678     0.662874    -0.189476 
C      1.213731     0.668496    -1.521699 
C      1.747164    -0.370170    -2.299983 
C      2.205804    -0.085696    -3.587844 
C      2.136146     1.217189    -4.100437 
C      1.588484     2.261914    -3.339490 
C      1.117225     1.991543    -2.060871 
C      0.479516     2.836632    -1.045235 
C      0.149391     4.185983    -1.021069 
C     -0.452651     4.717998     0.130006 
C     -0.707689     3.912094     1.248729 
C     -0.378120     2.556106     1.240155 
C      0.199473     2.009400     0.085951 
C     -1.689880    -1.582414     0.514481 
C     -2.210354    -0.825743    -0.559207 
C     -3.464315    -1.095027    -1.082649 
C     -4.248092    -2.141793    -0.556463 
C     -3.762563    -2.906647     0.484407 
C     -2.485321    -2.652389     1.046609 
C     -1.999004    -3.442959     2.130382 
C     -0.766807    -3.184695     2.711671 
H      3.943299    -1.036220     1.766895 
H      3.411556    -0.202587     0.290219 
H      3.071254    -1.934498     0.505643 
H      1.248735    -1.167117     3.705360 
H      2.072537    -2.492066     2.877975 
H      1.794309    -1.382319    -1.907990 
H      2.617507    -0.882122    -4.201594 
H      2.502834     1.420123    -5.102791 
H      1.536810     3.266290    -3.752157 
H      0.354116     4.827751    -1.874295 
H     -0.717438     5.771187     0.157110 
H     -1.159514     4.350270     2.134182 
H     -0.550679     1.932649     2.111831 
H     -1.620239    -0.016659    -0.973683 
H     -3.845233    -0.495667    -1.904559 
H     -5.232661    -2.344281    -0.969472 
H     -4.359015    -3.717293     0.896453 
H     -2.620570    -4.253594     2.501583 
H     -0.418549    -3.784387     3.548766 
F      2.052013     0.603213     2.380093 
----------------------------------------
  IMAGE 7 (ANGSTROEM)
----------------------------------------
C      3.089941    -0.697367     1.210934 
C      1.720383    -0.501144     1.862005 
C      1.303913    -1.672439     2.776159 
C      0.052183    -2.219539     2.145632 
C     -0.323025    -1.452855     1.010659 
C      0.607065    -0.398462     0.812868 
C      0.631113     0.675307    -0.151246 
C      0.999170     0.617366    -1.558177 
C      1.461287    -0.449106    -2.343064 
C      1.940037    -0.188181    -3.629007 
C      1.968973     1.119434    -4.134007 
C      1.519036     2.196064    -3.357534 
C      1.033652     1.950637    -2.077580 
C      0.575635     2.852533    -1.018437 
C      0.245356     4.204465    -1.022897 
C     -0.269297     4.781311     0.146627 
C     -0.451204     4.014388     1.306376 
C     -0.117993     2.659852     1.326803 
C      0.401962     2.072991     0.163724 
C     -1.611149    -1.700420     0.387015 
C     -2.149814    -0.908594    -0.654233 
C     -3.421704    -1.145492    -1.147733 
C     -4.205011    -2.198991    -0.633473 
C     -3.706265    -2.993861     0.376632 
C     -2.415915    -2.764330     0.919582 
C     -1.941602    -3.552492     2.009654 
C     -0.734159    -3.271390     2.623011 
H      3.865607    -0.771258     1.980270 
H      3.324310     0.136547     0.544376 
H      3.103915    -1.620715     0.621232 
H      1.107079    -1.279462     3.781116 
H      2.096137    -2.424252     2.873067 
H      1.469328    -1.460938    -1.946718 
H      2.305288    -1.006147    -4.243573 
H      2.353290     1.301366    -5.133970 
H      1.574708     3.210228    -3.745790 
H      0.357175     4.802449    -1.923291 
H     -0.541348     5.833613     0.150863 
H     -0.866608     4.477858     2.196858 
H     -0.264526     2.059677     2.217678 
H     -1.565828    -0.091018    -1.059487 
H     -3.823589    -0.507043    -1.929413 
H     -5.206607    -2.370890    -1.017954 
H     -4.311000    -3.793840     0.797018 
H     -2.566604    -4.362746     2.376236 
H     -0.406409    -3.846671     3.485366 
F      1.793111     0.683554     2.625820 
----------------------------------------
  IMAGE 8 (ANGSTROEM)
----------------------------------------
C      3.010761    -0.398426     1.431910 
C      1.592785    -0.397226     2.005235 
C      1.264247    -1.689400     2.780978 
C      0.085493    -2.280434     2.063437 
C     -0.271352    -1.519267     0.935620 
C      0.568946    -0.342381     0.850277 
C      0.608685     0.683377    -0.092740 
C      0.823271     0.588238    -1.547789 
C      1.172683    -0.511210    -2.343073 
C      1.637571    -0.293801    -3.642940 
C      1.766863     1.005065    -4.154270 
C      1.432028     2.112141    -3.369151 
C      0.966025     1.906873    -2.071929 
C      0.663510     2.855149    -1.000694 
C      0.380826     4.219959    -1.034392 
C     -0.036627     4.853668     0.140291 
C     -0.170570     4.129128     1.332377 
C      0.113439     2.764372     1.377407 
C      0.550952     2.120197     0.211383 
C     -1.539056    -1.784303     0.285985 
C     -2.103120    -0.963051    -0.722656 
C     -3.381394    -1.187143    -1.197574 
C     -4.153356    -2.265554    -0.714798 
C     -3.630283    -3.096262     0.251694 
C     -2.334661    -2.872498     0.787767 
C     -1.862568    -3.670475     1.867591 
C     -0.681081    -3.368859     2.509057 
H      3.747094    -0.489265     2.237270 
H      3.195233     0.521057     0.871317 
H      3.139967    -1.245121     0.748563 
H      1.016427    -1.432608     3.817207 
H      2.126207    -2.367316     2.815303 
H      1.117066    -1.520723    -1.945492 
H      1.930722    -1.140994    -4.256644 
H      2.160285     1.154630    -5.156131 
H      1.577220     3.119860    -3.750668 
H      0.434973     4.775423    -1.966922 
H     -0.296240     5.908369     0.120277 
H     -0.533046     4.626478     2.227704 
H     -0.028600     2.200197     2.289961 
H     -1.534781    -0.126895    -1.106672 
H     -3.802492    -0.513771    -1.939217 
H     -5.161024    -2.424765    -1.087782 
H     -4.220930    -3.916580     0.652046 
H     -2.484683    -4.488951     2.220387 
H     -0.364173    -3.933987     3.381803 
F      1.506755     0.697089     2.888690 
----------------------------------------
  IMAGE 9 (ANGSTROEM)
----------------------------------------
C      2.882824    -0.004534     1.772709 
C      1.438806    -0.319724     2.147932 
C      1.268486    -1.737766     2.740724 
C      0.098716    -2.324891     2.007612 
C     -0.293852    -1.511257     0.935093 
C      0.508674    -0.295496     0.914315 
C      0.579385     0.710799    -0.036624 
C      0.711810     0.569014    -1.502270 
C      0.908052    -0.569652    -2.293403 
C      1.283363    -0.415510    -3.630767 
C      1.472356     0.858119    -4.183728 
C      1.288376     2.002834    -3.403738 
C      0.913729     1.858705    -2.069350 
C      0.753561     2.853495    -1.008493 
C      0.608560     4.238588    -1.068939 
C      0.330559     4.942104     0.107021 
C      0.197310     4.264684     1.324892 
C      0.341735     2.877801     1.395628 
C      0.638879     2.162325     0.227719 
C     -1.534292    -1.802950     0.250597 
C     -2.137091    -0.950433    -0.709647 
C     -3.380207    -1.233280    -1.240352 
C     -4.082306    -2.396949    -0.858761 
C     -3.527123    -3.250967     0.068641 
C     -2.264411    -2.974223     0.656901 
C     -1.761704    -3.809322     1.693285 
C     -0.609279    -3.481773     2.372986 
H      3.530696    -0.085634     2.651015 
H      2.966595     0.999948     1.353178 
H      3.232291    -0.717445     1.019050 
H      1.087424    -1.658188     3.818123 
H      2.181415    -2.331488     2.608187 
H      0.794285    -1.563769    -1.871558 
H      1.451068    -1.295937    -4.244836 
H      1.786990     0.956805    -5.219121 
H      1.471426     2.989202    -3.823153 
H      0.668168     4.762402    -2.019414 
H      0.185067     6.018213     0.069757 
H     -0.050956     4.818784     2.226002 
H      0.197406     2.357344     2.332434 
H     -1.626682    -0.047735    -1.014291 
H     -3.828020    -0.542899    -1.949924 
H     -5.062419    -2.604456    -1.278423 
H     -4.065420    -4.138244     0.392726 
H     -2.336523    -4.686782     1.978621 
H     -0.267495    -4.087421     3.208252 
F      1.049768     0.597561     3.153391 
----------------------------------------

  PRODUCT (ANGSTROEM)
----------------------------------------
C      2.557539     0.432916     2.337238 
C      1.151947    -0.157802     2.356555 
C      1.179338    -1.644421     2.793243 
C      0.099469    -2.302151     1.984854 
C     -0.361877    -1.447749     0.980163 
C      0.382158    -0.184526     1.017651 
C      0.512851     0.774038     0.036684 
C      0.507493     0.573118    -1.434140 
C      0.438971    -0.591327    -2.207275 
C      0.602062    -0.506189    -3.592679 
C      0.851652     0.723430    -4.213057 
C      0.963036     1.888509    -3.449741 
C      0.798658     1.810100    -2.067781 
C      0.917642     2.841200    -1.035145 
C      1.082017     4.221127    -1.142448 
C      1.086556     4.994938     0.021495 
C      0.896604     4.393979     1.271830 
C      0.721824     3.011970     1.385861 
C      0.774602     2.219626     0.231918 
C     -1.536065    -1.818809     0.229626 
C     -2.248947    -0.940371    -0.627340 
C     -3.377414    -1.359148    -1.302473 
C     -3.852824    -2.682556    -1.163650 
C     -3.210549    -3.550595    -0.309624 
C     -2.063764    -3.142788     0.423784 
C     -1.473250    -4.013017     1.381574 
C     -0.432819    -3.588983     2.179191 
H      2.996642     0.331687     3.335449 
H      2.567926     1.485645     2.061150 
H      3.185326    -0.114408     1.628151 
H      1.009201    -1.716591     3.872958 
H      2.163626    -2.083368     2.586734 
H      0.262444    -1.556344    -1.747178 
H      0.535811    -1.409197    -4.193237 
H      0.975826     0.769540    -5.291532 
H      1.191190     2.837929    -3.927151 
H      1.186748     4.693446    -2.115795 
H      1.213328     6.071959    -0.046476 
H      0.869713     5.010022     2.166503 
H      0.530942     2.563247     2.353894 
H     -1.910180     0.080885    -0.739208 
H     -3.908974    -0.660197    -1.942211 
H     -4.734220    -3.003489    -1.711631 
H     -3.586659    -4.560406    -0.164032 
H     -1.890945    -5.009182     1.504968 
H     -0.026450    -4.237401     2.950989 
F      0.401797     0.551703     3.331341 



----------------------
NEB settings
----------------------
Method type                             ....  climbing image
Threshold for climbing image            ....  2.00e-02 Eh/Bohr 
Free endpoints                          ....  off 
Tangent type                            ....  improved 
Number of intermediate images           ....  8 
Number of images free to move           ....  8 
Spring type for image distribution      ....  distance between adjacent images 
Spring constant                         ....  energy weighted (0.0100 -to- 0.1000) Eh/Bohr^2 
Spring force perp. to the path          ....  none 
Generation of initial path              ....  restart (from initial_path.allxyz) 
Initial path via TS guess               ....  off 

Minimization of RMSD: Rotation          ....  always 
Minimization of RMSD: Translation type  ....  centroid 
Center fixed to origin                  ....  true 
Remove external force                   ....  true 

Reparametrization of the path           ....  off 
Convergence thresholds:
Convergence monitored for               ....  all images
Scaling factor                          ....  10.00

Convergence parameters for regular images:
               Max(|Fp|)                ....  2.00e-02 Eh/Bohr
               RMS(Fp)                  ....  1.00e-02 Eh/Bohr

Convergence parameters for climbing image:
               Max(|F|)                 ....  2.00e-03 Eh/Bohr
               RMS(F)                   ....  1.00e-03 Eh/Bohr
Optimization method:
Method                                  ....  L-BFGS
Max. iterations                         ....  500 
Step size                               ....  1.00 
Maximum allowed step size               ....  0.10 Bohr

LBFGS parameters: 
               Memory                   ....  20 
               Initial step size        ....  0.0010 
               Estimate curvature       ....  YES 
               Reset on maxmove         ....  YES 
               Reparam. on reset        ....  NO 
Displacement along initial path:             36.6898 Bohr
Writing initial trajectory to file      ....  orca_initial_path_trj.xyz



----------------------
NEB OPTIMIZATION      
----------------------

Following output files will be written:
Energy profile during opt. written to    ....  orca.interp
Optimization log-file                    ....  orca.NEB.log
Current trajectory will be written to    ....  orca_MEP_trj.xyz
       and to allxyz file                ....  orca_MEP.allxyz
       and individual images to xyz file ....  orca_im{NIm}.xyz
Trajectory history will be written to    ....  orca_MEP_ALL_trj.xyz
Converged CI will be written to          ....  orca_NEB-CI_converged.xyz
Converged TS will be written to          ....  orca_NEB-TS_converged.xyz

Single point energy and gradient calculation of reactant and
product configurations (have to be performed only once)
Properties of fixed NEB end points:
               Reactant:
                         E               ....  -1139.482748 Eh
                         RMS(F)          ....      0.000014 Eh/Bohr
                         MAX(|F|)        ....      0.000056 Eh/Bohr
               Product:
                         E               ....  -1139.479278 Eh
                         RMS(F)          ....      0.000056 Eh/Bohr
                         MAX(|F|)        ....      0.000205 Eh/Bohr



Starting iterations:

Optim.  Iteration  HEI  E(HEI)-E(0)  max(|Fp|)   RMS(Fp)    dS
Switch-on CI threshold               0.020000 
   LBFGS     0      5    0.058331    0.015294   0.001523  36.6898       

Image  5 will be converted to a climbing image in the next iteration (max(|Fp|) < 0.0200) 

Optim.  Iteration  CI   E(CI)-E(0)   max(|Fp|)   RMS(Fp)    dS     max(|FCI|)   RMS(FCI)
Convergence thresholds               0.020000   0.010000            0.002000    0.001000 
   LBFGS     1      5    0.058234    0.014141   0.001086  36.6898    0.016555    0.003414       
   LBFGS     2      5    0.056828    0.008314   0.000635  36.6917    0.014775    0.002652       
   LBFGS     3      5    0.054102    0.007472   0.000906  36.7346    0.007158    0.002115       
   LBFGS     4      5    0.053263    0.020683   0.002435  36.7951    0.011490    0.003145       
   LBFGS     5      5    0.052486    0.013305   0.001029  36.8051    0.004881    0.001645       
   LBFGS     6      5    0.052010    0.002810   0.000442  36.8174    0.003434    0.001265       
   LBFGS     7      5    0.051676    0.005236   0.000580  36.8325    0.003787    0.001204       
   LBFGS     8      5    0.051007    0.012705   0.001330  36.9023    0.006459    0.001947       
   LBFGS     9      5    0.050533    0.006460   0.000633  36.9515    0.003032    0.001141       
   LBFGS    10      5    0.050458    0.002683   0.000319  36.9604    0.002298    0.000902       
   LBFGS    11      5    0.050214    0.002997   0.000345  37.0126    0.002328    0.000851       
   LBFGS    12      5    0.049912    0.005507   0.000669  37.1045    0.002423    0.000878       
   LBFGS    13      5    0.049698    0.005041   0.000770  37.2502    0.003264    0.001116       
   LBFGS    14      5    0.049606    0.001296   0.000210  37.2624    0.002493    0.000689       
   LBFGS    15      5    0.049569    0.001096   0.000223  37.2740    0.002501    0.000654       
   LBFGS    16      5    0.049503    0.003333   0.000375  37.3266    0.002502    0.000767       
   LBFGS    17      5    0.049398    0.004819   0.000603  37.4570    0.002378    0.000850       
   LBFGS    18      5    0.049367    0.005185   0.000544  37.6442    0.003565    0.001178       
   LBFGS    19      5    0.049281    0.001786   0.000260  37.7020    0.001964    0.000705       

                                .--------------------.
          ----------------------| CI-NEB convergence |-------------------------
          Item                value                   Tolerance       Converged
          ---------------------------------------------------------------------
          RMS(Fp)             0.0002598255            0.0100000000      YES
          MAX(|Fp|)           0.0017858487            0.0200000000      YES
          RMS(FCI)            0.0007045071            0.0010000000      YES
          MAX(|FCI|)          0.0019639198            0.0020000000      YES
          ---------------------------------------------------------------------

The elastic band and climbing image have converged successfully to a MEP in 19 iterations!


WARNING!!!!!!!
Your GBWFile is either corrupt or from a different ORCA version!
Please be VERY careful with your calculation results!!!

Data_size, sizeof( TOrcaInfo ): 871272, 651728


                    *********************H U R R A Y*********************
                    ***        THE NEB OPTIMIZATION HAS CONVERGED     ***
                    *****************************************************



---------------------------------------------------------------
                         PATH SUMMARY              
---------------------------------------------------------------
All forces in Eh/Bohr.

Image Dist.(Ang.)    E(Eh)   dE(kcal/mol)  max(|Fp|)  RMS(Fp)
  0     0.000   -1139.48275      0.00       0.00005   0.00001
  1     4.008   -1139.46967      8.21       0.00059   0.00016
  2     6.445   -1139.45973     14.45       0.00179   0.00037
  3     8.279   -1139.45159     19.55       0.00061   0.00019
  4     9.699   -1139.44289     25.01       0.00116   0.00039
  5    10.855   -1139.43347     30.92       0.00185   0.00050 <= CI
  6    12.212   -1139.44252     25.24       0.00143   0.00046
  7    13.834   -1139.45460     17.66       0.00036   0.00013
  8    16.086   -1139.46713      9.80       0.00047   0.00018
  9    19.951   -1139.47928      2.18       0.00020   0.00006

Straight line distance between images along the path:
        D( 0- 1) =   4.0076 Ang.
        D( 1- 2) =   2.4370 Ang.
        D( 2- 3) =   1.8340 Ang.
        D( 3- 4) =   1.4207 Ang.
        D( 4- 5) =   1.1557 Ang.
        D( 5- 6) =   1.3569 Ang.
        D( 6- 7) =   1.6225 Ang.
        D( 7- 8) =   2.2513 Ang.
        D( 8- 9) =   3.8653 Ang.

---------------------------------------------------------------
               INFORMATION ABOUT SADDLE POINT     
---------------------------------------------------------------

Climbing image                            ....  5 
Energy                                    ....  -1139.43346686 Eh
Max. abs. force                           ....  1.9639e-03 Eh/Bohr

-----------------------------------------
  SADDLE POINT (ANGSTROEM)
-----------------------------------------
C      3.191136    -0.876968     1.061907 
C      1.829400    -0.647633     1.683185 
C      1.355714    -1.709429     2.710525 
C     -0.016875    -2.103166     2.249281 
C     -0.463348    -1.245672     1.218963 
C      0.611149    -0.411579     0.783462 
C      0.623782     0.649683    -0.156451 
C      1.294168     0.680748    -1.446377 
C      1.747224    -0.383131    -2.242909 
C      2.125943    -0.130707    -3.562084 
C      2.053921     1.164270    -4.095597 
C      1.541607     2.221653    -3.334138 
C      1.126024     1.974721    -2.029740 
C      0.421431     2.808194    -1.060645 
C      0.171928     4.177469    -1.029849 
C     -0.375266     4.741239     0.127524 
C     -0.633176     3.946599     1.254430 
C     -0.408707     2.569473     1.228554 
C      0.066515     1.980721     0.048109 
C     -1.731321    -1.518292     0.570545 
C     -2.223786    -0.792551    -0.539127 
C     -3.442902    -1.104862    -1.111591 
C     -4.228673    -2.160791    -0.601118 
C     -3.750225    -2.925856     0.440514 
C     -2.497579    -2.638163     1.044437 
C     -1.992784    -3.460773     2.089456 
C     -0.768152    -3.202669     2.680118 
H      3.942654    -0.889156     1.857850 
H      3.430594    -0.060643     0.377534 
H      3.229601    -1.823612     0.518220 
H      1.314705    -1.208461     3.685237 
H      2.035979    -2.561829     2.811057 
H      1.746289    -1.397865    -1.853906 
H      2.449003    -0.952920    -4.194525 
H      2.367619     1.344345    -5.119825 
H      1.430591     3.210084    -3.771512 
H      0.446054     4.808225    -1.870987 
H     -0.565784     5.810530     0.165457 
H     -0.975626     4.416580     2.171330 
H     -0.528945     1.969149     2.124900 
H     -1.629776     0.016835    -0.945131 
H     -3.795459    -0.536104    -1.967185 
H     -5.193198    -2.385520    -1.047529 
H     -4.319961    -3.776102     0.807066 
H     -2.585156    -4.313112     2.411183 
H     -0.382638    -3.854755     3.458264 
F      1.956305     0.581801     2.401120 

-----------------------------------------
  FORCES (Eh/Bohr)
-----------------------------------------
C      0.000861    -0.000623    -0.000789 
C     -0.000026    -0.000718    -0.000297 
C      0.000433     0.000238    -0.000305 
C      0.000152    -0.000718     0.000568 
C     -0.001415     0.001176     0.001009 
C      0.000430     0.000320     0.000404 
C     -0.000092     0.000301    -0.000061 
C      0.001754     0.000335     0.000399 
C      0.001052     0.000191     0.000425 
C      0.000859    -0.000602     0.000001 
C      0.000676     0.000809     0.000328 
C     -0.000941    -0.001102    -0.000954 
C      0.000293     0.000033     0.000605 
C     -0.000494    -0.000367    -0.000135 
C      0.000838     0.000049     0.000945 
C     -0.000791     0.000279    -0.000516 
C     -0.000746    -0.000506     0.000074 
C     -0.001290     0.000180    -0.000048 
C     -0.001906    -0.000201    -0.000762 
C     -0.000142     0.001151     0.000935 
C     -0.000303     0.001124     0.001314 
C     -0.000367     0.000354     0.000108 
C      0.000781    -0.000687    -0.000653 
C     -0.000073     0.000103    -0.000382 
C      0.000073     0.000195     0.000173 
C      0.000330     0.001004     0.001557 
C     -0.000547     0.000733    -0.001558 
H      0.000486    -0.000938    -0.000645 
H      0.000290    -0.000645    -0.000917 
H      0.000278    -0.001025    -0.000355 
H      0.001254    -0.000351    -0.000275 
H      0.000142    -0.000723    -0.000981 
H      0.001737     0.000241     0.000272 
H      0.001620     0.000150     0.000452 
H     -0.000375    -0.000395    -0.000368 
H     -0.000277     0.000074    -0.000612 
H      0.000029     0.000493    -0.000209 
H      0.000481    -0.000148     0.000464 
H     -0.001710    -0.000076     0.000104 
H     -0.001964    -0.000040    -0.000356 
H     -0.000469     0.001066     0.000630 
H     -0.000115     0.000263     0.000096 
H      0.000168    -0.000154    -0.000276 
H     -0.000435     0.000422     0.000588 
H     -0.000344     0.000051     0.000214 
H     -0.000082    -0.000217     0.000658 
F     -0.000290    -0.001154    -0.000650 

-----------------------------------------
  UNIT TANGENT
-----------------------------------------
C     -0.059831     0.160592     0.118756 
C     -0.077601     0.107983     0.127619 
C     -0.038236     0.020946     0.041701 
C      0.041220    -0.077266    -0.072757 
C      0.086517    -0.133472    -0.131853 
C     -0.007784     0.015259     0.018916 
C     -0.002045     0.010188     0.013164 
C     -0.201925    -0.049907    -0.066848 
C     -0.214246    -0.058172    -0.063900 
C     -0.161447    -0.056998    -0.045211 
C     -0.093389    -0.047838    -0.029603 
C     -0.045452    -0.031254    -0.019050 
C     -0.078583    -0.026650    -0.029969 
C      0.091123     0.022632     0.028425 
C      0.055713     0.014851     0.005352 
C      0.100848     0.032358     0.020027 
C      0.166390     0.056094     0.051154 
C      0.219502     0.068943     0.080759 
C      0.211119     0.059671     0.080650 
C      0.080826    -0.122478    -0.125530 
C      0.058262    -0.082637    -0.086733 
C      0.027941    -0.033380    -0.040176 
C      0.023761    -0.029666    -0.039214 
C      0.034016    -0.050565    -0.059386 
C      0.056478    -0.088635    -0.094171 
C      0.034418    -0.065754    -0.067564 
C      0.022406    -0.052095    -0.049872 
H     -0.052967     0.141373     0.109465 
H     -0.075500     0.177842     0.131329 
H     -0.048980     0.173480     0.091369 
H     -0.143485    -0.063506     0.070357 
H      0.037082     0.085260     0.026697 
H     -0.217884    -0.056545    -0.058889 
H     -0.142910    -0.057562    -0.032268 
H     -0.045334    -0.045958    -0.011919 
H      0.055984    -0.012451     0.014750 
H     -0.048483    -0.014106    -0.039769 
H      0.052150     0.021451    -0.005683 
H      0.144065     0.056887     0.039907 
H      0.223672     0.074683     0.084706 
H      0.057720    -0.080988    -0.084702 
H      0.001920     0.010315     0.003870 
H      0.002642     0.004647    -0.005635 
H      0.015041    -0.022787    -0.031518 
H      0.011734    -0.035260    -0.038816 
H     -0.012750    -0.001321     0.001016 
F     -0.143717     0.081795     0.171049 
 => Unit tangent is an approximation to the TS mode at the saddle point

Next a TS optimization is performed on the CI from the NEB run.

         *************************************************************
         *                       TS OPTIMIZATION                     *
         *************************************************************


Following output files will be written:
Converged TS will be written to          ....  orca_NEB-TS_converged.xyz
                                         ....  orca.xyz
Current trajectory will be written to    ....  orca_trj.xyz
Initial Hessian will be stored in        ....  orca.appr.hess
Geometry optimization settings:
Update method            Update   .... Bofill
Choice of coordinates    CoordSys .... Z-matrix Internals
Initial Hessian          InHess   .... Read

Convergence Tolerances:
Energy Change            TolE     ....  5.0000e-06 Eh
Max. Gradient            TolMAXG  ....  3.0000e-04 Eh/bohr
RMS Gradient             TolRMSG  ....  1.0000e-04 Eh/bohr
Max. Displacement        TolMAXD  ....  4.0000e-03 bohr
RMS Displacement         TolRMSD  ....  2.0000e-03 bohr
Strict Convergence                ....  False
------------------------------------------------------------------------------
                        ORCA OPTIMIZATION COORDINATE SETUP
------------------------------------------------------------------------------

The optimization will be done in new redundant internal coordinates
Making redundant internal coordinates   ...  (new redundants) done
Following TS mode number                ...     0
Evaluating the initial hessian          ... (Reading Exact Hessian)...  
InHessName: orca.appr.hess	The file <orca.appr.hess> is opened as a .hess file
done
done
Diagonalizing the Hessian               .... done
Dimension of the hessian                .... 284
Lowest eigenvalues of the non projected Hessian:
 -0.005739014 -0.000000000 -0.000000000 -0.000000000 -0.000000000
done
Evaluating the coordinates              ...  done
Calculating the B-matrix                .... done
Calculating the G-matrix                .... done
Diagonalizing the G-matrix              .... done
Small eigenvalue found = 3.601e-03
Small eigenvalue found = 5.964e-03
Small eigenvalue found = 8.737e-03
Small eigenvalue found = 1.762e-02
Small eigenvalue found = 2.979e-02
The first mode is                       ....  149
The number of degrees of freedom        ....  135

    -----------------------------------------------------------------
                    Redundant Internal Coordinates


    -----------------------------------------------------------------
         Definition                    Initial Value    d2E/dq (diagonal element)
    -----------------------------------------------------------------
      1. B(C   1,C   0)                  1.5142         0.403563   
      2. B(C   2,C   1)                  1.5515         0.320491   
      3. B(C   3,C   2)                  1.5006         0.375151   
      4. B(C   4,C   3)                  1.4129         0.438772   
      5. B(C   5,C   4)                  1.4283         0.475371   
      6. B(C   5,C   1)                  1.5328         0.335976   
      7. B(C   6,C   5)                  1.4177         0.564369   
      8. B(C   7,C   6)                  1.4541         0.436620   
      9. B(C   8,C   7)                  1.4041         0.548092   
     10. B(C   9,C   8)                  1.3955         0.565328   
     11. B(C  10,C   9)                  1.4024         0.548775   
     12. B(C  11,C  10)                  1.4001         0.555737   
     13. B(C  12,C   7)                  1.4293         0.422760   
     14. B(C  12,C  11)                  1.3911         0.574362   
     15. B(C  13,C  12)                  1.4595         0.433589   
     16. B(C  14,C  13)                  1.3922         0.572026   
     17. B(C  15,C  14)                  1.3988         0.557948   
     18. B(C  16,C  15)                  1.4028         0.548066   
     19. B(C  17,C  16)                  1.3955         0.566549   
     20. B(C  18,C  17)                  1.4021         0.551698   
     21. B(C  18,C  13)                  1.4283         0.427966   
     22. B(C  18,C   6)                  1.4574         0.438946   
     23. B(C  19,C   4)                  1.4500         0.466769   
     24. B(C  20,C  19)                  1.4144         0.529604   
     25. B(C  21,C  20)                  1.3826         0.591602   
     26. B(C  22,C  21)                  1.4117         0.532257   
     27. B(C  23,C  22)                  1.3781         0.601337   
     28. B(C  24,C  23)                  1.4201         0.519042   
     29. B(C  24,C  19)                  1.4373         0.438310   
     30. B(C  25,C  24)                  1.4225         0.511764   
     31. B(C  26,C   3)                  1.3996         0.555474   
     32. B(C  26,C  25)                  1.3839         0.587933   
     33. B(H  27,C   0)                  1.0947         0.353961   
     34. B(H  28,C   0)                  1.0918         0.357663   
     35. B(H  29,C   0)                  1.0923         0.357911   
     36. B(H  30,C   2)                  1.0967         0.351636   
     37. B(H  31,C   2)                  1.0952         0.353179   
     38. B(H  32,C   8)                  1.0867         0.364441   
     39. B(H  33,C   9)                  1.0865         0.364848   
     40. B(H  34,C  10)                  1.0862         0.365117   
     41. B(H  35,C  11)                  1.0866         0.364569   
     42. B(H  36,C  14)                  1.0865         0.364806   
     43. B(H  37,C  15)                  1.0868         0.364395   
     44. B(H  38,C  16)                  1.0858         0.365784   
     45. B(H  39,C  17)                  1.0855         0.366121   
     46. B(H  40,C  20)                  1.0830         0.369540   
     47. B(H  41,C  21)                  1.0862         0.365171   
     48. B(H  42,C  22)                  1.0863         0.364999   
     49. B(H  43,C  23)                  1.0871         0.363899   
     50. B(H  44,C  25)                  1.0867         0.364530   
     51. B(H  45,C  26)                  1.0860         0.365446   
     52. B(F  46,C   1)                  1.4294         0.451082   
     53. A(H  28,C   0,H  29)          109.1619         0.118383   
     54. A(H  27,C   0,H  29)          109.1508         0.114628   
     55. A(C   1,C   0,H  29)          111.5389         0.227757   
     56. A(C   1,C   0,H  28)          109.9482         0.228456   
     57. A(H  27,C   0,H  28)          108.2701         0.108394   
     58. A(C   1,C   0,H  27)          108.7067         0.226906   
     59. A(C   0,C   1,C   2)          116.2689         0.094598   
     60. A(C   2,C   1,F  46)          106.4490         0.039389   
     61. A(C   0,C   1,F  46)          104.8629         0.052796   
     62. A(C   0,C   1,C   5)          119.8181         0.085775   
     63. A(C   2,C   1,C   5)          104.5613         0.086488   
     64. A(C   5,C   1,F  46)          103.4701         0.034928   
     65. A(C   3,C   2,H  30)          111.0293         0.056671   
     66. A(C   1,C   2,C   3)          104.7914         0.101557   
     67. A(H  30,C   2,H  31)          107.2881         0.041803   
     68. A(C   1,C   2,H  31)          113.8152         0.077567   
     69. A(C   3,C   2,H  31)          113.0882         0.065364   
     70. A(C   1,C   2,H  30)          106.6967         0.063523   
     71. A(C   4,C   3,C  26)          122.1158         0.147019   
     72. A(C   2,C   3,C  26)          127.0485         0.173568   
     73. A(C   2,C   3,C   4)          110.7292         0.123134   
     74. A(C   3,C   4,C   5)          109.8196         0.123239   
     75. A(C   3,C   4,C  19)          119.2308         0.134922   
     76. A(C   5,C   4,C  19)          129.1470         0.162106   
     77. A(C   1,C   5,C   4)          109.2094         0.110700   
     78. A(C   4,C   5,C   6)          130.2426         0.219515   
     79. A(C   1,C   5,C   6)          119.8262         0.217407   
     80. A(C   7,C   6,C  18)          106.3373         0.123708   
     81. A(C   5,C   6,C  18)          125.9590         0.241285   
     82. A(C   5,C   6,C   7)          127.4629         0.241424   
     83. A(C   6,C   7,C  12)          109.0973         0.126297   
     84. A(C   6,C   7,C   8)          129.4808         0.166305   
     85. A(C   8,C   7,C  12)          119.4960         0.138555   
     86. A(C   7,C   8,H  32)          120.2743         0.212639   
     87. A(C   7,C   8,C   9)          119.1287         0.151201   
     88. A(C   9,C   8,H  32)          120.4984         0.213194   
     89. A(C  10,C   9,H  33)          119.5133         0.214856   
     90. A(C   8,C   9,H  33)          119.6097         0.215166   
     91. A(C   8,C   9,C  10)          120.8446         0.156850   
     92. A(C   9,C  10,C  11)          120.6136         0.156220   
     93. A(C  11,C  10,H  34)          119.5568         0.214695   
     94. A(C   9,C  10,H  34)          119.7991         0.214657   
     95. A(C  10,C  11,C  12)          119.0265         0.153525   
     96. A(C  12,C  11,H  35)          120.5572         0.214583   
     97. A(C  10,C  11,H  35)          120.3626         0.214213   
     98. A(C  11,C  12,C  13)          131.7163         0.175622   
     99. A(C   7,C  12,C  11)          120.5481         0.146725   
    100. A(C   7,C  12,C  13)          107.6242         0.125686   
    101. A(C  14,C  13,C  18)          120.5384         0.145713   
    102. A(C  12,C  13,C  18)          107.7311         0.125683   
    103. A(C  12,C  13,C  14)          131.5189         0.173996   
    104. A(C  13,C  14,C  15)          118.9999         0.153458   
    105. A(C  15,C  14,H  36)          120.3479         0.214035   
    106. A(C  13,C  14,H  36)          120.5737         0.214237   
    107. A(C  14,C  15,C  16)          120.5485         0.156195   
    108. A(C  16,C  15,H  37)          119.8064         0.214523   
    109. A(C  14,C  15,H  37)          119.6030         0.214694   
    110. A(C  15,C  16,C  17)          120.9654         0.157044   
    111. A(C  17,C  16,H  38)          119.5735         0.215145   
    112. A(C  15,C  16,H  38)          119.4179         0.215181   
    113. A(C  16,C  17,C  18)          118.9791         0.151096   
    114. A(C  18,C  17,H  39)          120.0347         0.212590   
    115. A(C  16,C  17,H  39)          120.8385         0.212968   
    116. A(C   6,C  18,C  17)          129.1431         0.159893   
    117. A(C   6,C  18,C  13)          108.9739         0.126053   
    118. A(C  13,C  18,C  17)          119.6372         0.136697   
    119. A(C  20,C  19,C  24)          118.2183         0.148981   
    120. A(C   4,C  19,C  24)          117.7260         0.142013   
    121. A(C   4,C  19,C  20)          123.9747         0.186365   
    122. A(C  19,C  20,H  40)          119.1196         0.214642   
    123. A(C  21,C  20,H  40)          119.8188         0.215914   
    124. A(C  19,C  20,C  21)          121.0610         0.154995   
    125. A(C  22,C  21,H  41)          119.7236         0.214942   
    126. A(C  20,C  21,H  41)          119.6088         0.216134   
    127. A(C  20,C  21,C  22)          120.6661         0.156928   
    128. A(C  23,C  22,H  42)          120.2653         0.216213   
    129. A(C  21,C  22,H  42)          120.0221         0.214849   
    130. A(C  21,C  22,C  23)          119.6894         0.156595   
    131. A(C  24,C  23,H  43)          118.5114         0.213919   
    132. A(C  22,C  23,H  43)          120.4695         0.215610   
    133. A(C  22,C  23,C  24)          121.0115         0.155199   
    134. A(C  23,C  24,C  25)          120.5497         0.191680   
    135. A(C  19,C  24,C  25)          120.2379         0.149772   
    136. A(C  19,C  24,C  23)          119.2025         0.149991   
    137. A(C  24,C  25,C  26)          121.3126         0.153393   
    138. A(C  26,C  25,H  44)          120.1521         0.214674   
    139. A(C  24,C  25,H  44)          118.5302         0.213163   
    140. A(C   3,C  26,C  25)          119.3486         0.152934   
    141. A(C  25,C  26,H  45)          120.5286         0.215388   
    142. A(C   3,C  26,H  45)          120.1140         0.214840   
    143. D(C   5,C   1,C   0,H  29)    -67.1590         0.027984   
    144. D(F  46,C   1,C   0,H  28)    -61.3764         0.028358   
    145. D(C   5,C   1,C   0,H  28)     54.0833         0.027799   
    146. D(C   2,C   1,C   0,H  29)     60.1434         0.027263   
    147. D(F  46,C   1,C   0,H  29)    177.3813         0.027958   
    148. D(C   5,C   1,C   0,H  27)    172.4430         0.028967   
    149. D(C   2,C   1,C   0,H  27)    -60.2546         0.027123   
    150. D(C   2,C   1,C   0,H  28)   -178.6143         0.028125   
    151. D(F  46,C   1,C   0,H  27)     56.9834         0.028314   
    152. D(H  30,C   2,C   1,C   5)   -112.1413         0.033613   
    153. D(H  30,C   2,C   1,C   0)    113.3416         0.035344   
    154. D(C   3,C   2,C   1,F  46)    114.8030         0.029301   
    155. D(H  31,C   2,C   1,C   5)    129.7255         0.033285   
    156. D(H  30,C   2,C   1,F  46)     -3.0162         0.033842   
    157. D(H  31,C   2,C   1,F  46)   -121.1495         0.033931   
    158. D(C   3,C   2,C   1,C   0)   -128.8392         0.033797   
    159. D(H  31,C   2,C   1,C   0)     -4.7916         0.033312   
    160. D(C   3,C   2,C   1,C   5)      5.6779         0.011016   
    161. D(C  26,C   3,C   2,H  30)    -78.3048         0.035209   
    162. D(C  26,C   3,C   2,H  31)     42.3585         0.034692   
    163. D(C  26,C   3,C   2,C   1)    166.8687         0.013287   
    164. D(C   4,C   3,C   2,H  31)   -133.9204         0.037611   
    165. D(C   4,C   3,C   2,H  30)    105.4163         0.037635   
    166. D(C   4,C   3,C   2,C   1)     -9.4102         0.011456   
    167. D(C  19,C   4,C   3,C  26)     -0.8523         0.009682   
    168. D(C   5,C   4,C   3,C  26)   -166.9400         0.010193   
    169. D(C   5,C   4,C   3,C   2)      9.5538         0.008225   
    170. D(C  19,C   4,C   3,C   2)    175.6415         0.010647   
    171. D(C   4,C   5,C   1,C   2)     -0.3958         0.008880   
    172. D(C   4,C   5,C   1,C   0)    132.1301         0.033035   
    173. D(C   4,C   5,C   1,F  46)   -111.6837         0.028522   
    174. D(C   6,C   5,C   4,C  19)     20.1379         0.019516   
    175. D(C   6,C   5,C   4,C   3)   -175.5590         0.011584   
    176. D(C   1,C   5,C   4,C  19)   -169.8335         0.017251   
    177. D(C   6,C   5,C   1,C   2)    170.8409         0.011637   
    178. D(C   6,C   5,C   1,F  46)     59.5530         0.026534   
    179. D(C   6,C   5,C   1,C   0)    -56.6332         0.028103   
    180. D(C   1,C   5,C   4,C   3)     -5.5304         0.007401   
    181. D(C  18,C   6,C   5,C   4)     73.4058         0.120970   
    182. D(C  18,C   6,C   5,C   1)    -95.7301         0.122055   
    183. D(C   7,C   6,C   5,C   4)   -113.0150         0.119223   
    184. D(C   7,C   6,C   5,C   1)     77.8492         0.120300   
    185. D(C  12,C   7,C   6,C  18)     -1.4123         0.005126   
    186. D(C  12,C   7,C   6,C   5)   -175.9997         0.007043   
    187. D(C   8,C   7,C   6,C  18)   -165.2089         0.014373   
    188. D(C   8,C   7,C   6,C   5)     20.2036         0.013717   
    189. D(H  32,C   8,C   7,C   6)     -8.9638         0.013367   
    190. D(C   9,C   8,C   7,C  12)      5.0796         0.008254   
    191. D(C   9,C   8,C   7,C   6)    167.4443         0.017140   
    192. D(H  32,C   8,C   7,C  12)   -171.3286         0.011743   
    193. D(H  33,C   9,C   8,H  32)     -1.7511         0.011893   
    194. D(H  33,C   9,C   8,C   7)   -178.1509         0.009625   
    195. D(C  10,C   9,C   8,H  32)    176.1713         0.010464   
    196. D(C  10,C   9,C   8,C   7)     -0.2285         0.008528   
    197. D(H  34,C  10,C   9,H  33)     -3.0235         0.011326   
    198. D(H  34,C  10,C   9,C   8)    179.0520         0.009152   
    199. D(C  11,C  10,C   9,H  33)    174.9574         0.009731   
    200. D(C  11,C  10,C   9,C   8)     -2.9670         0.008767   
    201. D(H  35,C  11,C  10,H  34)      1.7708         0.011423   
    202. D(H  35,C  11,C  10,C   9)   -176.2150         0.009609   
    203. D(C  12,C  11,C  10,H  34)    179.1225         0.009722   
    204. D(C  12,C  11,C  10,C   9)      1.1367         0.008432   
    205. D(C  11,C  12,C   7,C   6)   -172.6236         0.007723   
    206. D(C  13,C  12,C  11,H  35)      5.4834         0.011307   
    207. D(C  13,C  12,C  11,C  10)   -171.8630         0.011979   
    208. D(C   7,C  12,C  11,H  35)   -178.8672         0.008865   
    209. D(C   7,C  12,C  11,C  10)      3.7864         0.008842   
    210. D(C  13,C  12,C   7,C   8)    169.6435         0.009703   
    211. D(C  13,C  12,C   7,C   6)      3.9703         0.006534   
    212. D(C  11,C  12,C   7,C   8)     -6.9504         0.009279   
    213. D(C  18,C  13,C  12,C  11)    171.0410         0.009915   
    214. D(C  18,C  13,C  12,C   7)     -5.0285         0.006659   
    215. D(C  14,C  13,C  12,C  11)    -14.3697         0.011805   
    216. D(C  14,C  13,C  12,C   7)    169.5608         0.009780   
    217. D(H  36,C  14,C  13,C  18)    179.7023         0.008945   
    218. D(H  36,C  14,C  13,C  12)      5.6880         0.011292   
    219. D(C  15,C  14,C  13,C  18)      2.9139         0.008772   
    220. D(C  15,C  14,C  13,C  12)   -171.1004         0.011622   
    221. D(H  37,C  15,C  14,H  36)      2.6621         0.011549   
    222. D(H  37,C  15,C  14,C  13)    179.4579         0.009709   
    223. D(C  16,C  15,C  14,H  36)   -174.9715         0.009666   
    224. D(C  16,C  15,C  14,C  13)      1.8244         0.008423   
    225. D(H  38,C  16,C  15,H  37)     -2.9784         0.011412   
    226. D(H  38,C  16,C  15,C  14)    174.6503         0.009823   
    227. D(C  17,C  16,C  15,H  37)    179.4211         0.009194   
    228. D(C  17,C  16,C  15,C  14)     -2.9501         0.008794   
    229. D(H  39,C  17,C  16,H  38)     -2.7794         0.012185   
    230. D(H  39,C  17,C  16,C  15)    174.8174         0.011089   
    231. D(C  18,C  17,C  16,H  38)   -178.3636         0.009756   
    232. D(C  18,C  17,C  16,C  15)     -0.7668         0.008539   
    233. D(C  13,C  18,C  17,H  39)   -170.1780         0.012025   
    234. D(C  13,C  18,C  17,C  16)      5.4426         0.008399   
    235. D(C   6,C  18,C  17,H  39)     -9.1993         0.014452   
    236. D(C   6,C  18,C  17,C  16)    166.4213         0.019876   
    237. D(C  17,C  18,C  13,C  14)     -6.6095         0.009312   
    238. D(C  17,C  18,C  13,C  12)    168.6886         0.009370   
    239. D(C   6,C  18,C  13,C  14)   -171.1060         0.007044   
    240. D(C   6,C  18,C  13,C  12)      4.1921         0.006141   
    241. D(C  17,C  18,C   6,C   7)   -164.3303         0.018657   
    242. D(C  17,C  18,C   6,C   5)     10.3624         0.016737   
    243. D(C  13,C  18,C   6,C   7)     -1.7612         0.004928   
    244. D(C  13,C  18,C   6,C   5)    172.9314         0.006423   
    245. D(C  24,C  19,C   4,C   5)    164.9422         0.016356   
    246. D(C  24,C  19,C   4,C   3)      1.8998         0.006549   
    247. D(C  20,C  19,C   4,C   5)    -11.7199         0.011493   
    248. D(C  20,C  19,C   4,C   3)   -174.7623         0.009922   
    249. D(H  40,C  20,C  19,C  24)   -176.3985         0.008611   
    250. D(H  40,C  20,C  19,C   4)      0.2483         0.009297   
    251. D(C  21,C  20,C  19,C  24)      3.3290         0.006981   
    252. D(C  21,C  20,C  19,C   4)    179.9758         0.007424   
    253. D(H  41,C  21,C  20,H  40)      0.1185         0.011749   
    254. D(H  41,C  21,C  20,C  19)   -179.6070         0.009395   
    255. D(C  22,C  21,C  20,H  40)    179.6732         0.009237   
    256. D(C  22,C  21,C  20,C  19)     -0.0524         0.008472   
    257. D(H  42,C  22,C  21,H  41)     -1.5617         0.011228   
    258. D(H  42,C  22,C  21,C  20)    178.8842         0.009190   
    259. D(C  23,C  22,C  21,H  41)    176.6886         0.009193   
    260. D(C  23,C  22,C  21,C  20)     -2.8655         0.008535   
    261. D(H  43,C  23,C  22,H  42)      1.6448         0.012055   
    262. D(H  43,C  23,C  22,C  21)   -176.6012         0.009319   
    263. D(C  24,C  23,C  22,H  42)   -179.3763         0.009595   
    264. D(C  24,C  23,C  22,C  21)      2.3777         0.008433   
    265. D(C  19,C  24,C  23,C  22)      0.9413         0.006873   
    266. D(C  25,C  24,C  19,C  20)    175.1100         0.005864   
    267. D(C  25,C  24,C  19,C   4)     -1.7488         0.005134   
    268. D(C  23,C  24,C  19,C  20)     -3.7484         0.005495   
    269. D(C  23,C  24,C  19,C   4)    179.3929         0.005323   
    270. D(C  25,C  24,C  23,H  43)      1.0850         0.008891   
    271. D(C  25,C  24,C  23,C  22)   -177.9134         0.006956   
    272. D(C  19,C  24,C  23,H  43)    179.9397         0.008015   
    273. D(H  44,C  25,C  24,C  23)      0.1821         0.008803   
    274. D(H  44,C  25,C  24,C  19)   -178.6607         0.007794   
    275. D(C  26,C  25,C  24,C  23)    179.3603         0.007524   
    276. D(C  26,C  25,C  24,C  19)      0.5175         0.007136   
    277. D(H  45,C  26,C  25,H  44)      0.8441         0.011840   
    278. D(H  45,C  26,C  25,C  24)   -178.3209         0.010143   
    279. D(C   3,C  26,C  25,H  44)    179.7639         0.009341   
    280. D(C   3,C  26,C  25,C  24)      0.5989         0.008013   
    281. D(H  45,C  26,C   3,C   4)    178.4995         0.008664   
    282. D(H  45,C  26,C   3,C   2)      2.6092         0.010965   
    283. D(C  25,C  26,C   3,C   4)     -0.4248         0.009069   
    284. D(C  25,C  26,C   3,C   2)   -176.3152         0.011718   
    -----------------------------------------------------------------

Number of atoms                         .... 47
Number of degrees of freedom            .... 284

         *************************************************************
         *                GEOMETRY OPTIMIZATION CYCLE   1            *
         *************************************************************


           ************************************************************
           *        Program running with 128 parallel MPI-processes   *
           *              working on a common directory               *
           ************************************************************
------------------------------------------------------------------------------
                           ORCA GTO INTEGRAL CALCULATION
                           -- RI-GTO INTEGRALS CHOSEN --
------------------------------------------------------------------------------
------------------------------------------------------------------------------
                   ___                                                        
                  /   \      - P O W E R E D   B Y -                         
                 /     \                                                     
                 |  |  |   _    _      __       _____    __    __             
                 |  |  |  | |  | |    /  \     |  _  \  |  |  /  |          
                  \  \/   | |  | |   /    \    | | | |  |  | /  /          
                 / \  \   | |__| |  /  /\  \   | |_| |  |  |/  /          
                |  |  |   |  __  | /  /__\  \  |    /   |      \           
                |  |  |   | |  | | |   __   |  |    \   |  |\   \          
                \     /   | |  | | |  |  |  |  | |\  \  |  | \   \       
                 \___/    |_|  |_| |__|  |__|  |_| \__\ |__|  \__/        
                                                                              
                      - O R C A' S   B I G   F R I E N D -                    
                                      &                                       
                       - I N T E G R A L  F E E D E R -                       
                                                                              
 v1 FN, 2020, v2 2021                                                         
------------------------------------------------------------------------------


Reading SHARK input file orca.SHARKINP.tmp ... ok
----------------------
SHARK INTEGRAL PACKAGE
----------------------

Number of atoms                             ...     47
Number of basis functions                   ...    487
Number of shells                            ...    225
Maximum angular momentum                    ...      2
Integral batch strategy                     ... SHARK/LIBINT Hybrid
RI-J (if used) integral strategy            ... SPLIT-RIJ (Revised 2003 algorithm where possible)
Printlevel                                  ...      1
Contraction scheme used                     ... SEGMENTED contraction
Coulomb Range Separation                    ... NOT USED
Exchange Range Separation                   ... NOT USED
Finite Nucleus Model                        ... NOT USED
Auxiliary Coulomb fitting basis             ... AVAILABLE
   # of basis functions in Aux-J            ...   1581
   # of shells in Aux-J                     ...    515
   Maximum angular momentum in Aux-J        ...      4
Auxiliary J/K fitting basis                 ... NOT available
Auxiliary Correlation fitting basis         ... NOT available
Auxiliary 'external' fitting basis          ... NOT available
Integral threshold                          ...     2.500000e-11
Primitive cut-off                           ...     2.500000e-12
Primitive pair pre-selection threshold      ...     2.500000e-12

Calculating pre-screening integrals         ... done (  0.1 sec) Dimension = 225
Organizing shell pair data                  ... done (  0.2 sec)
Shell pair information
Total number of shell pairs                 ...     25425
Shell pairs after pre-screening             ...     17252
Total number of primitive shell pairs       ...    133515
Primitive shell pairs kept                  ...     50025
          la=0 lb=0:   5001 shell pairs
          la=1 lb=0:   6434 shell pairs
          la=1 lb=1:   2106 shell pairs
          la=2 lb=0:   2089 shell pairs
          la=2 lb=1:   1393 shell pairs
          la=2 lb=2:    229 shell pairs

Calculating one electron integrals          ... done (  0.1 sec)
Calculating RI/J V-Matrix + Cholesky decomp.... done (  0.3 sec)
Calculating Nuclear repulsion               ... done (  0.0 sec) ENN=   2451.036574665360 Eh

SHARK setup successfully completed in   1.0 seconds

Maximum memory used throughout the entire GTOINT-calculation: 32.0 MB


           ************************************************************
           *        Program running with 128 parallel MPI-processes   *
           *              working on a common directory               *
           ************************************************************
-------------------------------------------------------------------------------
                                 ORCA SCF
-------------------------------------------------------------------------------

------------
SCF SETTINGS
------------
Hamiltonian:
 Density Functional     Method          .... DFT(GTOs)
 Exchange Functional    Exchange        .... B88
   X-Alpha parameter    XAlpha          ....  0.666667
   Becke's b parameter  XBeta           ....  0.004200
 Correlation Functional Correlation     .... LYP
 LDA part of GGA corr.  LDAOpt          .... VWN-5
 Gradients option       PostSCFGGA      .... off
 Hybrid DFT is turned on
   Fraction HF Exchange ScalHFX         ....  0.200000
   Scaling of DF-GGA-X  ScalDFX         ....  0.720000
   Scaling of DF-GGA-C  ScalDFC         ....  0.810000
   Scaling of DF-LDA-C  ScalLDAC        ....  1.000000
   Perturbative correction              ....  0.000000
   Density functional embedding theory  .... OFF
   NL short-range parameter             ....  4.800000
 RI-approximation to the Coulomb term is turned on
   Number of AuxJ basis functions       .... 1581
   RIJ-COSX (HFX calculated with COS-X)).... on


General Settings:
 Integral files         IntName         .... orca
 Hartree-Fock type      HFTyp           .... UHF
 Total Charge           Charge          ....    0
 Multiplicity           Mult            ....    1
 Number of Electrons    NEL             ....  190
 Basis Dimension        Dim             ....  487
 Nuclear Repulsion      ENuc            ....   2451.0365746654 Eh

Convergence Acceleration:
 DIIS                   CNVDIIS         .... on
   Start iteration      DIISMaxIt       ....    12
   Startup error        DIISStart       ....  0.200000
   # of expansion vecs  DIISMaxEq       ....     5
   Bias factor          DIISBfac        ....   1.050
   Max. coefficient     DIISMaxC        ....  10.000
 Trust-Rad. Augm. Hess. CNVTRAH         .... auto
   Auto Start mean grad. ratio tolernc. ....  1.125000
   Auto Start start iteration           ....     1
   Auto Start num. interpolation iter.  ....    10
   Max. Number of Micro iterations      ....    16
   Max. Number of Macro iterations      .... Maxiter - #DIIS iter
   Number of Davidson start vectors     ....     2
   Converg. threshold I  (grad. norm)   ....   1.000e-05
   Converg. threshold II (energy diff.) ....   1.000e-08
   Grad. Scal. Fac. for Micro threshold ....   0.100
   Minimum threshold for Micro iter.    ....   0.010
   NR start threshold (gradient norm)   ....   0.001
   Initial trust radius                 ....   0.400
   Minimum AH scaling param. (alpha)    ....   1.000
   Maximum AH scaling param. (alpha)    .... 1000.000
   Orbital update algorithm             .... Taylor
   White noise on init. David. guess    .... on
   Maximum white noise                  ....   0.010
   Quad. conv. algorithm                .... NR
 SOSCF                  CNVSOSCF        .... off
 Level Shifting         CNVShift        .... on
   Level shift para.    LevelShift      ....    0.2500
   Turn off err/grad.   ShiftErr        ....    0.0010
 Zerner damping         CNVZerner       .... off
 Static damping         CNVDamp         .... on
   Fraction old density DampFac         ....    0.7000
   Max. Damping (<1)    DampMax         ....    0.9800
   Min. Damping (>=0)   DampMin         ....    0.0000
   Turn off err/grad.   DampErr         ....    0.1000
 Fernandez-Rico         CNVRico         .... off

SCF Procedure:
 Maximum # iterations   MaxIter         ....   125
 SCF integral mode      SCFMode         .... Direct
   Integral package                     .... SHARK and LIBINT hybrid scheme
 Reset frequency        DirectResetFreq ....    20
 Integral Threshold     Thresh          ....  2.500e-11 Eh
 Primitive CutOff       TCut            ....  2.500e-12 Eh

Convergence Tolerance:
 Convergence Check Mode ConvCheckMode   .... Total+1el-Energy
 Convergence forced     ConvForced      .... 0
 Energy Change          TolE            ....  1.000e-08 Eh
 1-El. energy change                    ....  1.000e-05 Eh
 DIIS Error             TolErr          ....  5.000e-07


Diagonalization of the overlap matrix:
Smallest eigenvalue                        ... 2.533e-04
Time for diagonalization                   ...    0.120 sec
Threshold for overlap eigenvalues          ... 1.000e-08
Number of eigenvalues below threshold      ... 0
Time for construction of square roots      ...    0.189 sec
Total time needed                          ...    0.313 sec

---------------------
INITIAL GUESS: MOREAD
---------------------
Guess MOs are being read from file: orca.gbw
Input Geometry matches current geometry (good)
Input basis set matches current basis set (good)
MOs were renormalized
MOs were reorthogonalized (Cholesky)
                      ------------------
                      INITIAL GUESS DONE (   0.7 sec)
                      ------------------
-------------------
DFT GRID GENERATION
-------------------

General Integration Accuracy     IntAcc      ... 4.388
Radial Grid Type                 RadialGrid  ... OptM3 with GC (2021)
Angular Grid (max. ang.)         AngularGrid ... 4 (Lebedev-302)
Angular grid pruning method      GridPruning ... 4 (adaptive)
Weight generation scheme         WeightScheme... Becke
[...]
    49. B(H  43,C  23)                1.0838 -0.001598 -0.0028    1.0810   
    50. B(H  44,C  25)                1.0865 -0.000130  0.0001    1.0866   
    51. B(H  45,C  26)                1.0858 -0.000599  0.0001    1.0860   
    52. B(F  46,C   1)                1.3972 -0.010702 -0.0033    1.3939   
    53. A(H  28,C   0,H  29)          107.89 -0.000550   -0.36    107.53   
    54. A(H  27,C   0,H  29)          105.23 -0.006804    0.36    105.59   
    55. A(C   1,C   0,H  29)          118.13  0.010750    0.36    118.49   
    56. A(C   1,C   0,H  28)          105.16 -0.007006    0.36    105.52   
    57. A(H  27,C   0,H  28)          109.44  0.003093   -0.36    109.08   
    58. A(C   1,C   0,H  27)          110.81  0.000598    0.36    111.17   
    59. A(C   0,C   1,C   2)          114.64 -0.002738    0.36    115.00   
    60. A(C   2,C   1,F  46)          107.34  0.000952    0.18    107.52   
    61. A(C   0,C   1,F  46)          105.91  0.000444    0.36    106.27   
    62. A(C   0,C   1,C   5)          124.41  0.002961   -0.36    124.05   
    63. A(C   2,C   1,C   5)          102.95  0.000121    0.36    103.31   
    64. A(C   5,C   1,F  46)           99.71 -0.001678    0.36    100.07   
    65. A(C   3,C   2,H  30)          112.18 -0.004824   -0.36    111.82   
    66. A(C   1,C   2,C   3)          103.09  0.000900   -0.36    102.73   
    67. A(H  30,C   2,H  31)          107.10 -0.000367   -0.36    106.74   
    68. A(C   1,C   2,H  31)          106.18 -0.003830    0.13    106.31   
    69. A(C   3,C   2,H  31)          113.28  0.005039    0.36    113.64   
    70. A(C   1,C   2,H  30)          115.00  0.003473    0.36    115.36   
    71. A(C   4,C   3,C  26)          123.28  0.002848   -0.36    122.92   
    72. A(C   2,C   3,C  26)          125.60 -0.007409   -0.36    125.24   
    73. A(C   2,C   3,C   4)          111.00  0.004498    0.36    111.36   
    74. A(C   3,C   4,C   5)          110.29 -0.001953    0.36    110.65   
    75. A(C   3,C   4,C  19)          119.09 -0.000017   -0.36    118.73   
    76. A(C   5,C   4,C  19)          130.25  0.001818    0.36    130.61   
    77. A(C   1,C   5,C   4)          102.50 -0.004723   -0.03    102.47   
    78. A(C   4,C   5,C   6)          126.98  0.003030    0.36    127.34   
    79. A(C   1,C   5,C   6)          124.33  0.000398    0.36    124.69   
    80. A(C   7,C   6,C  18)          104.92 -0.001519    0.36    105.28   
    81. A(C   5,C   6,C  18)          133.72  0.022143   -0.36    133.36   
    82. A(C   5,C   6,C   7)          119.90 -0.021169   -0.36    119.54   
    83. A(C   6,C   7,C  12)          109.61  0.003598   -0.36    109.25   
    84. A(C   6,C   7,C   8)          131.72 -0.003650   -0.36    131.36   
    85. A(C   8,C   7,C  12)          118.66  0.000025    0.36    119.02   
    86. A(C   7,C   8,H  32)          126.47  0.011461    0.36    126.83   
    87. A(C   7,C   8,C   9)          117.80 -0.005319   -0.36    117.44   
    88. A(C   9,C   8,H  32)          115.51 -0.006287   -0.36    115.14   
    89. A(C  10,C   9,H  33)          117.87 -0.002987   -0.36    117.51   
    90. A(C   8,C   9,H  33)          118.53 -0.002352   -0.12    118.42   
    91. A(C   8,C   9,C  10)          123.13  0.005146    0.36    123.49   
    92. A(C   9,C  10,C  11)          118.46 -0.005052   -0.10    118.36   
    93. A(C  11,C  10,H  34)          128.66  0.017635    0.36    129.02   
    94. A(C   9,C  10,H  34)          112.87 -0.012588   -0.36    112.51   
    95. A(C  10,C  11,C  12)          118.56 -0.000762    0.22    118.78   
    96. A(C  12,C  11,H  35)          118.51 -0.003122   -0.36    118.15   
    97. A(C  10,C  11,H  35)          122.92  0.003885    0.36    123.29   
    98. A(C  11,C  12,C  13)          129.12 -0.004537   -0.36    128.75   
    99. A(C   7,C  12,C  11)          123.23  0.005768   -0.36    122.86   
   100. A(C   7,C  12,C  13)          107.65 -0.001246    0.36    108.01   
   101. A(C  14,C  13,C  18)          121.73  0.003262   -0.36    121.37   
   102. A(C  12,C  13,C  18)          108.50  0.001245   -0.36    108.14   
   103. A(C  12,C  13,C  14)          129.73 -0.004486    0.36    130.09   
   104. A(C  13,C  14,C  15)          119.59  0.002800    0.36    119.95   
   105. A(C  15,C  14,H  36)          124.37  0.007613   -0.36    124.01   
   106. A(C  13,C  14,H  36)          115.85 -0.010467    0.36    116.21   
   107. A(C  14,C  15,C  16)          118.66 -0.006596    0.36    119.02   
   108. A(C  16,C  15,H  37)          117.46 -0.002286    0.36    117.82   
   109. A(C  14,C  15,H  37)          123.55  0.008613   -0.36    123.19   
   110. A(C  15,C  16,C  17)          122.63  0.005008   -0.13    122.50   
   111. A(C  17,C  16,H  38)          118.98 -0.002170   -0.36    118.62   
   112. A(C  15,C  16,H  38)          118.38 -0.002850    0.36    118.74   
   113. A(C  16,C  17,C  18)          118.93  0.000385   -0.36    118.57   
   114. A(C  18,C  17,H  39)          112.79 -0.015718    0.15    112.93   
   115. A(C  16,C  17,H  39)          127.46  0.014656    0.00    127.46   
   116. A(C   6,C  18,C  17)          132.18  0.007199    0.36    132.54   
   117. A(C   6,C  18,C  13)          109.05 -0.002151   -0.10    108.96   
   118. A(C  13,C  18,C  17)          118.45 -0.004911    0.36    118.81   
   119. A(C  20,C  19,C  24)          116.54 -0.005032   -0.36    116.18   
   120. A(C   4,C  19,C  24)          115.39 -0.004382    0.36    115.75   
   121. A(C   4,C  19,C  20)          127.60  0.009078   -0.36    127.24   
   122. A(C  19,C  20,H  40)          128.14  0.018754    0.36    128.51   
   123. A(C  21,C  20,H  40)          112.86 -0.014516   -0.36    112.50   
   124. A(C  19,C  20,C  21)          118.85 -0.004374    0.36    119.21   
   125. A(C  22,C  21,H  41)          114.35 -0.011747   -0.04    114.31   
   126. A(C  20,C  21,H  41)          121.28  0.002115    0.04    121.32   
   127. A(C  20,C  21,C  22)          124.10  0.009487   -0.36    123.74   
   128. A(C  23,C  22,H  42)          126.87  0.011596   -0.36    126.51   
   129. A(C  21,C  22,H  42)          115.30 -0.007134    0.36    115.66   
   130. A(C  21,C  22,C  23)          117.74 -0.004510    0.36    118.10   
   131. A(C  24,C  23,H  43)          112.37 -0.010146   -0.36    112.01   
   132. A(C  22,C  23,H  43)          128.82  0.015321    0.36    129.19   
   133. A(C  22,C  23,C  24)          118.80 -0.005185   -0.36    118.44   
   134. A(C  23,C  24,C  25)          115.75 -0.015901    0.36    116.11   
   135. A(C  19,C  24,C  25)          122.05  0.006870    0.02    122.07   
   136. A(C  19,C  24,C  23)          121.85  0.008830    0.36    122.21   
   137. A(C  24,C  25,C  26)          120.36 -0.002791   -0.36    120.00   
   138. A(C  26,C  25,H  44)          123.34  0.005728    0.36    123.70   
   139. A(C  24,C  25,H  44)          116.29 -0.002933   -0.31    115.99   
   140. A(C   3,C  26,C  25)          117.42 -0.003473    0.36    117.78   
   141. A(C  25,C  26,H  45)          128.56  0.015443   -0.36    128.20   
   142. A(C   3,C  26,H  45)          113.41 -0.012288    0.36    113.77   
   143. D(C   5,C   1,C   0,H  29)    -10.01 -0.000585    0.32     -9.69   
   144. D(F  46,C   1,C   0,H  28)     -3.69  0.000058   -0.14     -3.83   
   145. D(C   5,C   1,C   0,H  28)    110.38 -0.000006   -0.36    110.01   
   146. D(C   2,C   1,C   0,H  29)    117.79 -0.000443   -0.36    117.43   
   147. D(F  46,C   1,C   0,H  29)   -124.07 -0.000522    0.36   -123.71   
   148. D(C   5,C   1,C   0,H  27)   -131.47 -0.000070   -0.36   -131.83   
   149. D(C   2,C   1,C   0,H  27)     -3.67  0.000073   -0.36     -4.03   
   150. D(C   2,C   1,C   0,H  28)   -121.83  0.000137   -0.36   -122.19   
   151. D(F  46,C   1,C   0,H  27)    114.47 -0.000006   -0.36    114.11   
   152. D(H  30,C   2,C   1,C   5)   -152.84  0.001712    0.36   -152.48   
   153. D(H  30,C   2,C   1,C   0)     69.14 -0.000188    0.36     69.50   
   154. D(C   3,C   2,C   1,F  46)     74.24 -0.003155    0.36     74.60   
   155. D(H  31,C   2,C   1,C   5)     88.93  0.002779    0.36     89.29   
   156. D(H  30,C   2,C   1,F  46)    -48.18  0.000224    0.36    -47.82   
   157. D(H  31,C   2,C   1,F  46)   -166.42  0.001292    0.36   -166.05   
   158. D(C   3,C   2,C   1,C   0)   -168.44 -0.003567    0.36   -168.07   
   159. D(H  31,C   2,C   1,C   0)    -49.09  0.000880    0.36    -48.73   
   160. D(C   3,C   2,C   1,C   5)    -30.42 -0.001667    0.36    -30.06   
   161. D(C  26,C   3,C   2,H  30)    -30.32  0.004228    0.36    -29.96   
   162. D(C  26,C   3,C   2,H  31)     91.08  0.003843    0.36     91.44   
   163. D(C  26,C   3,C   2,C   1)   -154.61  0.002116    0.36   -154.25   
   164. D(C   4,C   3,C   2,H  31)    -92.63  0.002950    0.36    -92.27   
   165. D(C   4,C   3,C   2,H  30)    145.96  0.003335    0.36    146.32   
   166. D(C   4,C   3,C   2,C   1)     21.67  0.001223    0.36     22.03   
   167. D(C  19,C   4,C   3,C  26)    -11.96 -0.001049   -0.36    -12.33   
   168. D(C   5,C   4,C   3,C  26)    174.25  0.000130   -0.36    173.89   
   169. D(C   5,C   4,C   3,C   2)     -2.14  0.001452   -0.36     -2.50   
   170. D(C  19,C   4,C   3,C   2)    171.65  0.000273   -0.36    171.29   
   171. D(C   4,C   5,C   1,C   2)     29.48  0.001449   -0.36     29.12   
   172. D(C   4,C   5,C   1,C   0)    162.00  0.000170   -0.36    161.64   
   173. D(C   4,C   5,C   1,F  46)    -80.98  0.000926   -0.36    -81.34   
   174. D(C   6,C   5,C   4,C  19)     17.07  0.003430   -0.36     16.71   
   175. D(C   6,C   5,C   4,C   3)   -170.05  0.001885   -0.36   -170.41   
   176. D(C   1,C   5,C   4,C  19)    169.94  0.000437    0.36    170.31   
   177. D(C   6,C   5,C   1,C   2)   -176.69 -0.000435    0.36   -176.33   
   178. D(C   6,C   5,C   1,F  46)     72.85 -0.000958    0.36     73.21   
   179. D(C   6,C   5,C   1,C   0)    -44.17 -0.001714    0.36    -43.80   
   180. D(C   1,C   5,C   4,C   3)    -17.17 -0.001108    0.36    -16.81   
   181. D(C  18,C   6,C   5,C   4)     29.20  0.003244   -0.36     28.84   
   182. D(C  18,C   6,C   5,C   1)   -118.18  0.007827   -0.36   -118.54   
   183. D(C   7,C   6,C   5,C   4)   -134.66  0.007582    0.36   -134.30   
   184. D(C   7,C   6,C   5,C   1)     77.95  0.012165    0.36     78.31   
   185. D(C  12,C   7,C   6,C  18)      1.81  0.000380    0.36      2.17   
   186. D(C  12,C   7,C   6,C   5)    169.81  0.001779   -0.36    169.45   
   187. D(C   8,C   7,C   6,C  18)   -178.69 -0.003386    0.36   -178.33   
   188. D(C   8,C   7,C   6,C   5)    -10.69 -0.001987   -0.36    -11.05   
   189. D(H  32,C   8,C   7,C   6)      2.98  0.002856    0.36      3.34   
   190. D(C   9,C   8,C   7,C  12)     -3.31 -0.003452    0.36     -2.95   
   191. D(C   9,C   8,C   7,C   6)    177.22  0.000579   -0.36    176.86   
   192. D(H  32,C   8,C   7,C  12)   -177.56 -0.001175    0.36   -177.19   
   193. D(H  33,C   9,C   8,H  32)      7.77  0.004098   -0.36      7.41   
   194. D(H  33,C   9,C   8,C   7)   -167.10  0.005095   -0.36   -167.46   
   195. D(C  10,C   9,C   8,H  32)    179.81  0.002172   -0.36    179.45   
   196. D(C  10,C   9,C   8,C   7)      4.94  0.003168   -0.36      4.58   
   197. D(H  34,C  10,C   9,H  33)    -12.25 -0.003583   -0.36    -12.61   
   198. D(H  34,C  10,C   9,C   8)    175.66 -0.001711   -0.36    175.30   
   199. D(C  11,C  10,C   9,H  33)    168.21 -0.003049   -0.36    167.85   
   200. D(C  11,C  10,C   9,C   8)     -3.88 -0.001176   -0.36     -4.24   
   201. D(H  35,C  11,C  10,H  34)      2.16  0.000180    0.36      2.52   
   202. D(H  35,C  11,C  10,C   9)   -178.39 -0.000636    0.36   -178.03   
   203. D(C  12,C  11,C  10,H  34)   -178.29  0.000259    0.36   -177.93   
   204. D(C  12,C  11,C  10,C   9)      1.16 -0.000557    0.36      1.53   
   205. D(C  11,C  12,C   7,C   6)   -179.57 -0.000887    0.36   -179.21   
   206. D(C  13,C  12,C  11,H  35)     -1.35 -0.001152    0.36     -0.99   
   207. D(C  13,C  12,C  11,C  10)    179.08 -0.001258    0.36    179.44   
   208. D(C   7,C  12,C  11,H  35)    179.82 -0.000095   -0.36    179.46   
   209. D(C   7,C  12,C  11,C  10)      0.25 -0.000201   -0.36     -0.11   
   210. D(C  13,C  12,C   7,C   8)   -178.19  0.003256   -0.36   -178.55   
   211. D(C  13,C  12,C   7,C   6)      1.38  0.000028   -0.36      1.02   
   212. D(C  11,C  12,C   7,C   8)      0.85  0.002340   -0.36      0.49   
   213. D(C  18,C  13,C  12,C  11)    176.83  0.000308   -0.36    176.47   
   214. D(C  18,C  13,C  12,C   7)     -4.20 -0.000545    0.36     -3.84   
   215. D(C  14,C  13,C  12,C  11)     -5.42  0.001051   -0.36     -5.78   
   216. D(C  14,C  13,C  12,C   7)    173.56  0.000198   -0.19    173.37   
   217. D(H  36,C  14,C  13,C  18)    173.88 -0.000951   -0.36    173.51   
   218. D(H  36,C  14,C  13,C  12)     -3.62 -0.001709   -0.36     -3.98   
   219. D(C  15,C  14,C  13,C  18)     -1.28 -0.000640   -0.36     -1.65   
   220. D(C  15,C  14,C  13,C  12)   -178.78 -0.001398   -0.36   -179.14   
   221. D(H  37,C  15,C  14,H  36)     12.75  0.003795   -0.36     12.39   
   222. D(H  37,C  15,C  14,C  13)   -172.53  0.002507   -0.36   -172.89   
   223. D(C  16,C  15,C  14,H  36)   -174.00  0.000829   -0.36   -174.36   
   224. D(C  16,C  15,C  14,C  13)      0.72 -0.000459    0.36      1.08   
   225. D(H  38,C  16,C  15,H  37)     -8.03 -0.002848    0.36     -7.67   
   226. D(H  38,C  16,C  15,C  14)    178.30 -0.000832    0.36    178.67   
   227. D(C  17,C  16,C  15,H  37)    173.00 -0.002011    0.36    173.37   
   228. D(C  17,C  16,C  15,C  14)     -0.66  0.000005    0.36     -0.29   
   229. D(H  39,C  17,C  16,H  38)     -9.08 -0.004052   -0.36     -9.44   
   230. D(H  39,C  17,C  16,C  15)    169.88 -0.004900   -0.36    169.51   
   231. D(C  18,C  17,C  16,H  38)   -177.85  0.002319   -0.36   -178.21   
   232. D(C  18,C  17,C  16,C  15)      1.11  0.001471    0.36      1.47   
   233. D(C  13,C  18,C  17,H  39)   -171.93  0.000157   -0.36   -172.29   
   234. D(C  13,C  18,C  17,C  16)     -1.58 -0.002267   -0.36     -1.95   
   235. D(C   6,C  18,C  17,H  39)      0.78  0.001427    0.36      1.14   
   236. D(C   6,C  18,C  17,C  16)    171.12 -0.000997    0.36    171.49   
   237. D(C  17,C  18,C  13,C  14)      1.72  0.001944    0.36      2.08   
   238. D(C  17,C  18,C  13,C  12)    179.69  0.002412    0.36    180.05   
   239. D(C   6,C  18,C  13,C  14)   -172.57  0.000225    0.36   -172.21   
   240. D(C   6,C  18,C  13,C  12)      5.40  0.000693   -0.36      5.04   
   241. D(C  17,C  18,C   6,C   7)   -177.64 -0.001518   -0.36   -178.00   
   242. D(C  17,C  18,C   6,C   5)     16.79  0.005371    0.36     17.16   
   243. D(C  13,C  18,C   6,C   7)     -4.42 -0.000565   -0.36     -4.78   
   244. D(C  13,C  18,C   6,C   5)   -169.98  0.006324    0.36   -169.62   
   245. D(C  24,C  19,C   4,C   5)   -169.48  0.000686    0.36   -169.12   
   246. D(C  24,C  19,C   4,C   3)     18.16  0.002442   -0.36     17.80   
   247. D(C  20,C  19,C   4,C   5)     18.78  0.004131    0.36     19.14   
   248. D(C  20,C  19,C   4,C   3)   -153.58  0.005887   -0.36   -153.94   
   249. D(H  40,C  20,C  19,C  24)   -164.66  0.004946    0.36   -164.30   
   250. D(H  40,C  20,C  19,C   4)      6.99  0.001530    0.36      7.35   
   251. D(C  21,C  20,C  19,C  24)     10.58  0.001978    0.36     10.95   
   252. D(C  21,C  20,C  19,C   4)   -177.76 -0.001438   -0.36   -178.12   
   253. D(H  41,C  21,C  20,H  40)      4.52  0.001329    0.36      4.88   
   254. D(H  41,C  21,C  20,C  19)   -171.43  0.002382    0.36   -171.07   
   255. D(C  22,C  21,C  20,H  40)    178.18 -0.001079   -0.36    177.82   
   256. D(C  22,C  21,C  20,C  19)      2.24 -0.000027   -0.36      1.88   
   257. D(H  42,C  22,C  21,H  41)    -19.23 -0.004249   -0.36    -19.59   
   258. D(H  42,C  22,C  21,C  20)    166.72 -0.002678   -0.36    166.35   
   259. D(C  23,C  22,C  21,H  41)    164.06 -0.003818   -0.36    163.70   
   260. D(C  23,C  22,C  21,C  20)    -10.00 -0.002248    0.36     -9.64   
   261. D(H  43,C  23,C  22,H  42)      7.19  0.001896    0.36      7.56   
   262. D(H  43,C  23,C  22,C  21)   -176.52  0.000626    0.36   -176.16   
   263. D(C  24,C  23,C  22,H  42)   -172.02  0.002953    0.36   -171.66   
   264. D(C  24,C  23,C  22,C  21)      4.27  0.001683    0.36      4.63   
   265. D(C  19,C  24,C  23,C  22)      8.80  0.001134   -0.36      8.44   
   266. D(C  25,C  24,C  19,C  20)    156.72 -0.006421    0.36    157.08   
   267. D(C  25,C  24,C  19,C   4)    -15.96 -0.004596    0.36    -15.60   
   268. D(C  23,C  24,C  19,C  20)    -16.25 -0.003299    0.36    -15.88   
   269. D(C  23,C  24,C  19,C   4)    171.07 -0.001475    0.36    171.43   
   270. D(C  25,C  24,C  23,H  43)     16.08  0.003380   -0.36     15.72   
   271. D(C  25,C  24,C  23,C  22)   -164.58  0.002680   -0.36   -164.94   
   272. D(C  19,C  24,C  23,H  43)   -170.53  0.001834   -0.36   -170.90   
   273. D(H  44,C  25,C  24,C  23)      1.08  0.002111   -0.36      0.72   
   274. D(H  44,C  25,C  24,C  19)   -172.29  0.003523   -0.36   -172.65   
   275. D(C  26,C  25,C  24,C  23)   -179.86  0.002459   -0.36   -180.22   
   276. D(C  26,C  25,C  24,C  19)      6.77  0.003872   -0.36      6.41   
   277. D(H  45,C  26,C  25,H  44)      9.40  0.003530    0.36      9.76   
   278. D(H  45,C  26,C  25,C  24)   -169.60  0.003248   -0.36   -169.96   
   279. D(C   3,C  26,C  25,H  44)    179.73 -0.000310    0.36    180.10   
   280. D(C   3,C  26,C  25,C  24)      0.74 -0.000592    0.36      1.10   
   281. D(H  45,C  26,C   3,C   4)    173.83 -0.001015    0.36    174.19   
   282. D(H  45,C  26,C   3,C   2)    -10.32 -0.002023    0.36     -9.96   
   283. D(C  25,C  26,C   3,C   4)      2.05 -0.000304    0.36      2.42   
   284. D(C  25,C  26,C   3,C   2)    177.90 -0.001312    0.36    178.26   
    ----------------------------------------------------------------------------




    ----------------------------------------------------------------------------
                                   ERROR !!!
       The optimization did not converge but reached the maximum 
       number of optimization cycles.
       As a subsequent Frequencies calculation has been requested
       ORCA will abort at this point of the run.
       Please restart the calculation with the lowest energy geometry and/or
       a larger maxiter for the geometry optimization.
    ----------------------------------------------------------------------------






    ----------------------------------------------------------------------------
                                   ERROR !!!
       The TS optimization did not converge but reached the maximum 
       number of optimization cycles.
       As a subsequent Frequencies calculation has been requested
       ORCA will abort at this point of the run.
    ----------------------------------------------------------------------------


----------
STATISTICS
----------

For the individual parts of the NEB, NEB-CI or NEB-TS run:

Number of iterations:
     NEB                               ... 20  12.3%
     TS optimization                   ... 143  87.7%
Number of SCF / gradient calculations:
     NEB                               ... 170  54.3%
     TS optimization                   ... 143  45.7%

----------
 TIMINGS
----------

For the individual parts of the NEB, NEB-CI or NEB-TS run:

Total                                  ...    18978.278 sec
NEB                                    ...     3610.862 sec  19.0%
TS Optimization                        ...    15367.416 sec  81.0%

[file orca_main/run.cpp, line 12331]: ORCA finished with error return - aborting the run

Scratch size is (after job, before scratch deletion):
Filesystem                      Size  Used Avail Use% Mounted on
/dev/nvme0n1                    3.5T   26G  3.5T   1% /scratch
