 vasp.6.3.2 27Jun22 (build Jun  6 2023 14:30:03) complex                         
 executed on             LinuxGNU date 2024.04.08  13:11:17
 running on   48 total cores
 distrk:  each k-point on   48 cores,    1 groups
 distr:  one band on NCORE=   1 cores,   48 groups


--------------------------------------------------------------------------------------------------------


 INCAR:
   ENCUT = 450.000000
   SIGMA = 0.100000
   EDIFF = 1.00E-06
   EDIFFG = -0.01
   ALGO = Fast
   GGA = RP
   PREC = Normal
   ISMEAR = 1
   ISPIN = 2
   MAGMOM = 63*1.0 1*3.0
   ISTART = 1
   ISYM = 0
   LORBIT = 11
   LAECHG = .TRUE.
   LCHARG = .TRUE.
   LWAVE = .FALSE.
   LREAL = Auto
   IBRION = 3
   POTIM = 0
   IOPT = 2
   MAXMOVE = 0.2
   FDSTEP = 5E-3
   NSW = 100

 POTCAR:    PAW_PBE Cu 22Jun2005                  
 POTCAR:    PAW_PBE Co 02Aug2007                  
 -----------------------------------------------------------------------------
|                                                                             |
|           W    W    AA    RRRRR   N    N  II  N    N   GGGG   !!!           |
|           W    W   A  A   R    R  NN   N  II  NN   N  G    G  !!!           |
|           W    W  A    A  R    R  N N  N  II  N N  N  G       !!!           |
|           W WW W  AAAAAA  RRRRR   N  N N  II  N  N N  G  GGG   !            |
|           WW  WW  A    A  R   R   N   NN  II  N   NN  G    G                |
|           W    W  A    A  R    R  N    N  II  N    N   GGGG   !!!           |
|                                                                             |
|     For optimal performance we recommend to set                             |
|       NCORE = 2 up to number-of-cores-per-socket                            |
|     NCORE specifies how many cores store one orbital (NPAR=cpu/NCORE).      |
|     This setting can greatly improve the performance of VASP for DFT.       |
|     The default, NCORE=1 might be grossly inefficient on modern             |
|     multi-core architectures or massively parallel machines. Do your        |
|     own testing! More info at https://www.vasp.at/wiki/index.php/NCORE      |
|     Unfortunately you need to use the default for GW and RPA                |
|     calculations (for HF NCORE is supported but not extensively tested      |
|     yet).                                                                   |
|                                                                             |
 -----------------------------------------------------------------------------

 POTCAR:    PAW_PBE Cu 22Jun2005                  
   VRHFIN =Cu: d10 p1                                                                               
   LEXCH  = PE                                                                                      
   EATOM  =  1390.9808 eV,  102.2342 Ry                                                             
                                                                                                    
   TITEL  = PAW_PBE Cu 22Jun2005                                                                    
   LULTRA =        F    use ultrasoft PP ?                                                          
   IUNSCR =        1    unscreen: 0-lin 1-nonlin 2-no                                               
   RPACOR =    2.000    partial core radius                                                         
   POMASS =   63.546; ZVAL   =   11.000    mass and valenz                                          
   RCORE  =    2.300    outmost cutoff radius                                                       
   RWIGS  =    2.200; RWIGS  =    1.164    wigner-seitz radius (au A)                               
   ENMAX  =  295.446; ENMIN  =  221.585 eV                                                          
   ICORE  =        3    local potential                                                             
   LCOR   =        T    correct aug charges                                                         
   LPAW   =        T    paw PP                                                                      
   EAUG   =  586.980                                                                                
   DEXC   =    0.000                                                                                
   RMAX   =    2.344    core radius for proj-oper                                                   
   RAUG   =    1.300    factor for augmentation sphere                                              
   RDEP   =    2.302    radius for radial grids                                                     
   RDEPT  =    1.771    core radius for aug-charge                                                  
                                                                                                    
   Atomic configuration                                                                             
    9 entries                                                                                       
     n  l   j            E        occ.                                                              
     1  0  0.50     -8850.2468   2.0000                                                             
     2  0  0.50     -1062.3498   2.0000                                                             
     2  1  1.50      -916.8226   6.0000                                                             
     3  0  0.50      -114.6929   2.0000                                                             
     3  1  1.50       -72.1325   6.0000                                                             
     3  2  2.50        -5.0394  10.0000                                                             
     4  0  0.50        -4.6097   1.0000                                                             
     4  1  0.50        -4.0817   0.0000                                                             
     4  3  2.50        -1.3606   0.0000                                                             
   Description                                                                                      
     l       E           TYP  RCUT    TYP  RCUT                                                     
     2     -5.0393973     23  2.200                                                                 
     2     10.8846608     23  2.200                                                                 
     0     -4.6097109     23  2.200                                                                 
     0      8.2520465     23  2.200                                                                 
     1     -2.7211652     23  2.200                                                                 
     1     21.7055443     23  2.200                                                                 
     3      2.7211652     23  2.300                                                                 
  local pseudopotential read in
  partial core-charges read in
  partial kinetic energy density read in
  atomic valenz-charges read in
  non local Contribution for L=           2  read in
    real space projection operators read in
  non local Contribution for L=           2  read in
    real space projection operators read in
  non local Contribution for L=           0  read in
    real space projection operators read in
  non local Contribution for L=           0  read in
    real space projection operators read in
  non local Contribution for L=           1  read in
    real space projection operators read in
  non local Contribution for L=           1  read in
    real space projection operators read in
    PAW grid and wavefunctions read in

   number of l-projection  operators is LMAX  =           6
   number of lm-projection operators is LMMAX =          18

 POTCAR:    PAW_PBE Co 02Aug2007                  
   VRHFIN =Co: d8 s1                                                                                
   LEXCH  = PE                                                                                      
   EATOM  =   813.3670 eV,   59.7808 Ry                                                             
                                                                                                    
   TITEL  = PAW_PBE Co 02Aug2007                                                                    
   LULTRA =        F    use ultrasoft PP ?                                                          
   IUNSCR =        1    unscreen: 0-lin 1-nonlin 2-no                                               
   RPACOR =    2.000    partial core radius                                                         
   POMASS =   58.933; ZVAL   =    9.000    mass and valenz                                          
   RCORE  =    2.300    outmost cutoff radius                                                       
   RWIGS  =    2.460; RWIGS  =    1.302    wigner-seitz radius (au A)                               
   ENMAX  =  267.968; ENMIN  =  200.976 eV                                                          
   RCLOC  =    1.203    cutoff for local pot                                                        
   LCOR   =        T    correct aug charges                                                         
   LPAW   =        T    paw PP                                                                      
   EAUG   =  477.818                                                                                
   DEXC   =    0.000                                                                                
   RMAX   =    2.360    core radius for proj-oper                                                   
   RAUG   =    1.300    factor for augmentation sphere                                              
   RDEP   =    2.393    radius for radial grids                                                     
   RDEPT  =    1.864    core radius for aug-charge                                                  
                                                                                                    
   Atomic configuration                                                                             
    9 entries                                                                                       
     n  l   j            E        occ.                                                              
     1  0  0.50     -7587.6674   2.0000                                                             
     2  0  0.50      -893.6084   2.0000                                                             
     2  1  1.50      -764.5805   6.0000                                                             
     3  0  0.50       -97.5973   2.0000                                                             
     3  1  1.50       -60.9648   6.0000                                                             
     3  2  2.50        -4.2382   8.0000                                                             
     4  0  0.50        -4.3746   1.0000                                                             
     4  1  1.50        -4.0817   0.0000                                                             
     4  3  2.50        -1.3606   0.0000                                                             
   Description                                                                                      
     l       E           TYP  RCUT    TYP  RCUT                                                     
     2     -4.2382362     23  2.300                                                                 
     2     -5.5988188     23  2.300                                                                 
     0     -4.3745797     23  2.300                                                                 
     0      5.7660125     23  2.300                                                                 
     1     -2.7211652     23  2.300                                                                 
     1     16.9860234     23  2.300                                                                 
  local pseudopotential read in
  partial core-charges read in
  partial kinetic energy density read in
  atomic valenz-charges read in
  non local Contribution for L=           2  read in
    real space projection operators read in
  non local Contribution for L=           2  read in
    real space projection operators read in
  non local Contribution for L=           0  read in
    real space projection operators read in
  non local Contribution for L=           0  read in
    real space projection operators read in
  non local Contribution for L=           1  read in
    real space projection operators read in
  non local Contribution for L=           1  read in
    real space projection operators read in
    PAW grid and wavefunctions read in

   number of l-projection  operators is LMAX  =           6
   number of lm-projection operators is LMMAX =          18

 Optimization of the real space projectors (new method)

 maximal supplied QI-value         = 16.25
 optimisation between [QCUT,QGAM] = [ 10.73, 21.61] = [ 32.22,130.83] Ry 
 Optimized for a Real-space Cutoff    1.42 Angstroem

   l    n(q)    QCUT    max X(q) W(low)/X(q) W(high)/X(q)  e(spline) 
   2      8    10.726     4.610    0.15E-03    0.25E-03    0.14E-06
   2      8    10.726     8.522    0.25E-03    0.43E-03    0.27E-06
   0      9    10.726    51.609    0.94E-04    0.10E-03    0.12E-06
   0      9    10.726    27.747    0.85E-04    0.96E-04    0.11E-06
   1      9    10.726    20.408    0.25E-03    0.14E-03    0.12E-06
   1      9    10.726    13.425    0.22E-03    0.13E-03    0.11E-06
 Optimization of the real space projectors (new method)

 maximal supplied QI-value         = 16.25
 optimisation between [QCUT,QGAM] = [ 10.73, 21.61] = [ 32.22,130.83] Ry 
 Optimized for a Real-space Cutoff    1.34 Angstroem

   l    n(q)    QCUT    max X(q) W(low)/X(q) W(high)/X(q)  e(spline) 
   2      8    10.726    65.824    0.48E-03    0.41E-03    0.10E-06
   2      8    10.726    61.429    0.49E-03    0.41E-03    0.10E-06
   0      9    10.726    56.174    0.31E-03    0.30E-03    0.94E-07
   0      9    10.726    31.263    0.28E-03    0.27E-03    0.85E-07
   1      8    10.726    19.828    0.31E-03    0.38E-04    0.16E-06
   1      8    10.726    15.139    0.27E-03    0.26E-04    0.13E-06
 -----------------------------------------------------------------------------
|                                                                             |
|               ----> ADVICE to this user running VASP <----                  |
|                                                                             |
|     You enforced a specific xc type in the INCAR file but a different       |
|     type was found in the POTCAR file.                                      |
|     I HOPE YOU KNOW WHAT YOU ARE DOING!                                     |
|                                                                             |
 -----------------------------------------------------------------------------

  PAW_PBE Cu 22Jun2005                  :
 energy of atom  1       EATOM=-1390.9808
 kinetic energy error for atom=    0.0097 (will be added to EATOM!!)
  PAW_PBE Co 02Aug2007                  :
 energy of atom  2       EATOM= -813.3670
 kinetic energy error for atom=    0.0036 (will be added to EATOM!!)


 POSCAR: Cu Co
  positions in direct lattice
  velocities in cartesian coordinates
 exchange correlation table for  LEXCH =        9
   RHO(1)=    0.500       N(1)  =     2000
   RHO(2)=  100.500       N(2)  =     4000

 VTST: version 4.1, (05/19/21)

 CHAIN: initializing optimizer
 
 OPT: Using Conjugate-Gradient optimizer
 OPT: CG, Init
 OPT: CG, FDSTEP      0.005000
 OPT: CG, MAXMOVE      0.200000
 
 CHAIN: Read ICHAIN            0

 POSCAR: Cu Co
  positions in direct lattice
  velocities in cartesian coordinates



--------------------------------------------------------------------------------------------------------


 ion  position               nearest neighbor table
   1  0.125  0.125  0.058-  17 2.54  18 2.54  21 2.54  22 2.54   2 2.54   4 2.54   5 2.54  13 2.54

   2  0.125  0.375  0.058-  18 2.54  19 2.54  22 2.54  23 2.54   1 2.54   3 2.54   6 2.54  14 2.54

   3  0.125  0.625  0.058-  19 2.54  20 2.54  23 2.54  24 2.54   2 2.54   4 2.54   7 2.54  15 2.54

   4  0.125  0.875  0.058-  17 2.54  20 2.54  21 2.54  24 2.54   1 2.54   3 2.54   8 2.54  16 2.54

   5  0.375  0.125  0.058-  21 2.54  22 2.54  25 2.54  26 2.54   1 2.54   6 2.54   8 2.54   9 2.54

   6  0.375  0.375  0.058-  22 2.54  23 2.54  26 2.54  27 2.54   2 2.54   5 2.54   7 2.54  10 2.54

   7  0.375  0.625  0.058-  23 2.54  24 2.54  27 2.54  28 2.54   3 2.54   6 2.54   8 2.54  11 2.54

   8  0.375  0.875  0.058-  21 2.54  24 2.54  25 2.54  28 2.54   4 2.54   5 2.54   7 2.54  12 2.54

   9  0.625  0.125  0.058-  25 2.54  26 2.54  29 2.54  30 2.54   5 2.54  10 2.54  12 2.54  13 2.54

  10  0.625  0.375  0.058-  26 2.54  27 2.54  30 2.54  31 2.54   6 2.54   9 2.54  11 2.54  14 2.54

  11  0.625  0.625  0.058-  27 2.54  28 2.54  31 2.54  32 2.54   7 2.54  10 2.54  12 2.54  15 2.54

  12  0.625  0.875  0.058-  25 2.54  28 2.54  29 2.54  32 2.54   8 2.54   9 2.54  11 2.54  16 2.54

  13  0.875  0.125  0.058-  17 2.54  18 2.54  29 2.54  30 2.54   1 2.54   9 2.54  14 2.54  16 2.54

  14  0.875  0.375  0.058-  18 2.54  19 2.54  30 2.54  31 2.54   2 2.54  10 2.54  13 2.54  15 2.54

  15  0.875  0.625  0.058-  19 2.54  20 2.54  31 2.54  32 2.54   3 2.54  11 2.54  14 2.54  16 2.54

  16  0.875  0.875  0.058-  17 2.54  20 2.54  29 2.54  32 2.54   4 2.54  12 2.54  13 2.54  15 2.54

  17  0.000  0.000  0.141-   1 2.54   4 2.54  13 2.54  16 2.54  18 2.54  20 2.54  21 2.54  29 2.54
                            45 2.62  48 2.62  36 2.62  33 2.62
  18  0.000  0.250  0.141-   1 2.54   2 2.54  13 2.54  14 2.54  17 2.54  19 2.54  22 2.54  30 2.54
                            45 2.62  33 2.62  46 2.63  34 2.63
  19  0.000  0.500  0.141-   2 2.54   3 2.54  14 2.54  15 2.54  18 2.54  20 2.54  23 2.54  31 2.54
                            46 2.63  47 2.63  34 2.63  35 2.63
  20  0.000  0.750  0.141-   3 2.54   4 2.54  15 2.54  16 2.54  17 2.54  19 2.54  24 2.54  32 2.54
                            48 2.62  36 2.62  47 2.63  35 2.63
  21  0.250  0.000  0.141-   1 2.54   4 2.54   5 2.54   8 2.54  17 2.54  22 2.54  24 2.54  25 2.54
                            36 2.62  33 2.62  40 2.63  37 2.63
  22  0.250  0.250  0.141-   1 2.54   2 2.54   5 2.54   6 2.54  18 2.54  21 2.54  23 2.54  26 2.54
                            38 2.62  33 2.62  37 2.63  34 2.63
  23  0.250  0.500  0.141-   2 2.54   3 2.54   6 2.54   7 2.54  19 2.54  22 2.54  24 2.54  27 2.54
                            38 2.62  39 2.62  34 2.62  35 2.62
  24  0.250  0.750  0.141-   3 2.54   4 2.54   7 2.54   8 2.54  20 2.54  21 2.54  23 2.54  28 2.54
                            39 2.62  36 2.62  40 2.63  35 2.63
  25  0.500  0.000  0.141-   5 2.54   8 2.54   9 2.54  12 2.54  21 2.54  26 2.54  28 2.54  29 2.54
                            40 2.63  44 2.63  41 2.63  37 2.63
  26  0.500  0.250  0.141-   5 2.54   6 2.54   9 2.54  10 2.54  22 2.54  25 2.54  27 2.54  30 2.54
                            38 2.62  42 2.62  37 2.62  41 2.62
  27  0.500  0.500  0.141-   6 2.54   7 2.54  10 2.54  11 2.54  23 2.54  26 2.54  28 2.54  31 2.54
                            38 2.62  42 2.62  39 2.62  43 2.62
  28  0.500  0.750  0.141-   7 2.54   8 2.54  11 2.54  12 2.54  24 2.54  25 2.54  27 2.54  32 2.54
                            39 2.62  43 2.62  40 2.62  44 2.62
  29  0.750  0.000  0.141-   9 2.54  12 2.54  13 2.54  16 2.54  17 2.54  25 2.54  30 2.54  32 2.54
                            45 2.62  48 2.62  44 2.63  41 2.63
  30  0.750  0.250  0.141-   9 2.54  10 2.54  13 2.54  14 2.54  18 2.54  26 2.54  29 2.54  31 2.54
                            42 2.62  45 2.62  46 2.63  41 2.63
  31  0.750  0.500  0.141-  10 2.54  11 2.54  14 2.54  15 2.54  19 2.54  27 2.54  30 2.54  32 2.54
                            42 2.62  43 2.62  46 2.62  47 2.62
  32  0.750  0.750  0.141-  11 2.54  12 2.54  15 2.54  16 2.54  20 2.54  28 2.54  29 2.54  31 2.54
                            43 2.62  48 2.62  44 2.63  47 2.63
  33  0.125  0.125  0.228-  34 2.54  37 2.54  45 2.54  36 2.54  53 2.57  50 2.57  49 2.58  54 2.58
                            22 2.62  18 2.62  21 2.62  17 2.62
  34  0.125  0.375  0.229-  35 2.54  33 2.54  38 2.54  46 2.54  50 2.57  54 2.58  51 2.58  55 2.59
                            23 2.62  19 2.63  22 2.63  18 2.63
  35  0.125  0.625  0.229-  34 2.54  36 2.54  39 2.54  47 2.54  52 2.57  56 2.58  51 2.58  55 2.59
                            23 2.62  19 2.63  24 2.63  20 2.63
  36  0.125  0.875  0.228-  35 2.54  40 2.54  48 2.54  33 2.54  53 2.57  52 2.57  49 2.58  56 2.58
                            24 2.62  20 2.62  21 2.62  17 2.62
  37  0.375  0.125  0.229-  41 2.54  33 2.54  38 2.54  40 2.54  53 2.57  54 2.58  57 2.58  58 2.59
                            26 2.62  25 2.63  22 2.63  21 2.63
  38  0.375  0.375  0.228-  64 2.50  42 2.54  39 2.54  37 2.54  34 2.54  55 2.57  58 2.57  54 2.58
                            27 2.62  26 2.62  23 2.62  22 2.62
  39  0.375  0.625  0.228-  64 2.50  43 2.54  38 2.54  40 2.54  35 2.54  55 2.57  59 2.57  56 2.58
                            27 2.62  28 2.62  23 2.62  24 2.62
  40  0.375  0.875  0.229-  44 2.54  36 2.54  39 2.54  37 2.54  53 2.57  56 2.58  57 2.58  59 2.59
                            28 2.62  25 2.63  24 2.63  21 2.63
  41  0.625  0.125  0.229-  37 2.54  45 2.54  42 2.54  44 2.54  60 2.57  61 2.58  57 2.58  58 2.59
                            26 2.62  25 2.63  30 2.63  29 2.63
  42  0.625  0.375  0.228-  64 2.50  38 2.54  43 2.54  46 2.54  41 2.54  62 2.57  58 2.57  61 2.58
                            27 2.62  31 2.62  26 2.62  30 2.62
  43  0.625  0.625  0.228-  64 2.50  39 2.54  42 2.54  44 2.54  47 2.54  62 2.57  59 2.57  63 2.58
                            27 2.62  28 2.62  31 2.62  32 2.62
  44  0.625  0.875  0.229-  40 2.54  48 2.54  43 2.54  41 2.54  60 2.57  63 2.58  57 2.58  59 2.59
                            28 2.62  25 2.63  32 2.63  29 2.63
  45  0.875  0.125  0.228-  46 2.54  41 2.54  33 2.54  48 2.54  60 2.57  50 2.57  49 2.58  61 2.58
                            30 2.62  29 2.62  18 2.62  17 2.62
  46  0.875  0.375  0.229-  47 2.54  45 2.54  42 2.54  34 2.54  50 2.57  61 2.58  51 2.58  62 2.59
                            31 2.62  19 2.63  30 2.63  18 2.63
  47  0.875  0.625  0.229-  46 2.54  48 2.54  43 2.54  35 2.54  52 2.57  63 2.58  51 2.58  62 2.59
                            31 2.62  19 2.63  32 2.63  20 2.63
  48  0.875  0.875  0.228-  47 2.54  44 2.54  36 2.54  45 2.54  60 2.57  52 2.57  49 2.58  63 2.58
                            32 2.62  20 2.62  29 2.62  17 2.62
  49  1.000  1.000  0.313-  52 2.54  60 2.54  50 2.54  53 2.54  33 2.58  36 2.58  45 2.58  48 2.58

  50  1.000  0.250  0.313-  49 2.54  51 2.54  61 2.54  54 2.54  33 2.57  45 2.57  46 2.57  34 2.57

  51  0.000  0.500  0.313-  50 2.54  52 2.54  62 2.57  55 2.57  35 2.58  34 2.58  47 2.58  46 2.58

  52  0.000  0.750  0.313-  49 2.54  51 2.54  56 2.54  63 2.54  36 2.57  48 2.57  35 2.57  47 2.57

  53  0.250  1.000  0.313-  49 2.54  57 2.54  54 2.54  56 2.54  33 2.57  36 2.57  40 2.57  37 2.57

  54  0.250  0.250  0.313-  55 2.54  58 2.54  53 2.54  50 2.54  37 2.58  34 2.58  33 2.58  38 2.58

  55  0.253  0.500  0.313-  64 2.51  56 2.54  54 2.54  38 2.57  39 2.57  51 2.57  35 2.59  34 2.59

  56  0.250  0.750  0.313-  55 2.54  59 2.54  52 2.54  53 2.54  35 2.58  40 2.58  36 2.58  39 2.58

  57  0.500  0.000  0.313-  53 2.54  60 2.54  59 2.57  58 2.57  41 2.58  37 2.58  44 2.58  40 2.58

  58  0.500  0.253  0.313-  64 2.51  61 2.54  54 2.54  38 2.57  42 2.57  57 2.57  41 2.59  37 2.59

  59  0.500  0.747  0.313-  64 2.51  63 2.54  56 2.54  39 2.57  43 2.57  57 2.57  44 2.59  40 2.59

  60  0.750  0.000  0.313-  49 2.54  57 2.54  61 2.54  63 2.54  45 2.57  48 2.57  44 2.57  41 2.57

  61  0.750  0.250  0.313-  58 2.54  62 2.54  60 2.54  50 2.54  41 2.58  46 2.58  45 2.58  42 2.58

  62  0.747  0.500  0.313-  64 2.51  63 2.54  61 2.54  42 2.57  43 2.57  51 2.57  47 2.59  46 2.59

  63  0.750  0.750  0.313-  59 2.54  62 2.54  52 2.54  60 2.54  47 2.58  44 2.58  48 2.58  43 2.58

  64  0.500  0.500  0.308-  43 2.50  39 2.50  42 2.50  38 2.50  62 2.51  59 2.51  55 2.51  58 2.51



IMPORTANT INFORMATION: All symmetrisations will be switched off!
NOSYMM: (Re-)initialisation of all symmetry stuff for point group C_1.


----------------------------------------------------------------------------------------

                                     Primitive cell                                     

  volume of cell :    2253.6915

  direct lattice vectors                    reciprocal lattice vectors
    10.168195513  0.000000000  0.000000000     0.098345867  0.000000000  0.000000000
     0.000000000 10.168195513  0.000000000     0.000000000  0.098345867  0.000000000
     0.000000000  0.000000000 21.797500000     0.000000000  0.000000000  0.045876821

  length of vectors
    10.168195513 10.168195513 21.797500000     0.098345867  0.098345867  0.045876821

  position of ions in fractional coordinates (direct lattice)
     0.125000000  0.125000000  0.058310560
     0.125000000  0.375000000  0.058310560
     0.125000000  0.625000000  0.058310560
     0.125000000  0.875000000  0.058310560
     0.375000000  0.125000000  0.058310560
     0.375000000  0.375000000  0.058310560
     0.375000000  0.625000000  0.058310560
     0.375000000  0.875000000  0.058310560
     0.625000000  0.125000000  0.058310560
     0.625000000  0.375000000  0.058310560
     0.625000000  0.625000000  0.058310560
     0.625000000  0.875000000  0.058310560
     0.875000000  0.125000000  0.058310560
     0.875000000  0.375000000  0.058310560
     0.875000000  0.625000000  0.058310560
     0.875000000  0.875000000  0.058310560
     0.000000000  0.000000000  0.140774146
     0.000000000  0.250000000  0.140774146
     0.000000000  0.500000000  0.140774146
     0.000000000  0.750000000  0.140774146
     0.250000000  0.000000000  0.140774146
     0.250000000  0.250000000  0.140774146
     0.250000000  0.500000000  0.140774146
     0.250000000  0.750000000  0.140774146
     0.500000000  0.000000000  0.140774146
     0.500000000  0.250000000  0.140774146
     0.500000000  0.500000000  0.140774146
     0.500000000  0.750000000  0.140774146
     0.750000000  0.000000000  0.140774146
     0.750000000  0.250000000  0.140774146
     0.750000000  0.500000000  0.140774146
     0.750000000  0.750000000  0.140774146
     0.125103045  0.125103047  0.228369665
     0.125076841  0.375147357  0.228566668
     0.125076796  0.624852605  0.228566714
     0.125103034  0.874896892  0.228369640
     0.375147379  0.125076894  0.228566672
     0.375200008  0.375199995  0.228078625
     0.375199963  0.624800271  0.228078653
     0.375147385  0.874923280  0.228566654
     0.624852572  0.125076824  0.228566704
     0.624800191  0.375199933  0.228078645
     0.624800176  0.624800222  0.228078679
     0.624852576  0.874923225  0.228566694
     0.874896925  0.125103041  0.228369626
     0.874923283  0.375147372  0.228566642
     0.874923247  0.624852595  0.228566701
     0.874896918  0.874896881  0.228369617
     0.999999981  0.999999966  0.312977086
     0.999999982  0.249780333  0.312995662
     0.000000087  0.499999935  0.313406168
     0.000000005  0.750219617  0.312995697
     0.249780362  0.999999983  0.312995621
     0.250275637  0.250275636  0.313208622
     0.253191596  0.500000001  0.313383579
     0.250275643  0.749724326  0.313208649
     0.499999947  0.000000177  0.313406147
     0.500000011  0.253191689  0.313383673
     0.500000002  0.746808692  0.313383749
     0.750219621  0.000000005  0.312995620
     0.749724330  0.250275638  0.313208613
     0.746808590  0.499999975  0.313383656
     0.749724319  0.749724308  0.313208658
     0.500000303  0.500000387  0.307749162

  ion indices of the primitive-cell ions
   primitive index   ion index
                 1           1
                 2           2
                 3           3
                 4           4
                 5           5
                 6           6
                 7           7
                 8           8
                 9           9
                10          10
                11          11
                12          12
                13          13
                14          14
                15          15
                16          16
                17          17
                18          18
                19          19
                20          20
                21          21
                22          22
                23          23
                24          24
                25          25
                26          26
                27          27
                28          28
                29          29
                30          30
                31          31
                32          32
                33          33
                34          34
                35          35
                36          36
                37          37
                38          38
                39          39
                40          40
                41          41
                42          42
                43          43
                44          44
                45          45
                46          46
                47          47
                48          48
                49          49
                50          50
                51          51
                52          52
                53          53
                54          54
                55          55
                56          56
                57          57
                58          58
                59          59
                60          60
                61          61
                62          62
                63          63
                64          64

----------------------------------------------------------------------------------------



 KPOINTS: KPOINTS created by Atomic Simulation Env

Automatic generation of k-mesh.
 Grid dimensions read from file:
 generate k-points for:    3    3    1

 Generating k-lattice:

  Cartesian coordinates                     Fractional coordinates (reciprocal lattice)
     0.032781956  0.000000000  0.000000000     0.333333333  0.000000000  0.000000000
     0.000000000  0.032781956  0.000000000     0.000000000  0.333333333  0.000000000
     0.000000000  0.000000000  0.045876821     0.000000000  0.000000000  1.000000000

  Length of vectors
     0.032781956  0.032781956  0.045876821

  Shift w.r.t. Gamma in fractional coordinates (k-lattice)
     0.000000000  0.000000000  0.000000000

 
 Subroutine IBZKPT returns following result:
 ===========================================
 
 Found      5 irreducible k-points:
 
 Following reciprocal coordinates:
            Coordinates               Weight
  0.000000  0.000000  0.000000      1.000000
  0.333333  0.000000  0.000000      2.000000
  0.000000  0.333333  0.000000      2.000000
  0.333333  0.333333  0.000000      2.000000
 -0.333333  0.333333  0.000000      2.000000
 
 Following cartesian coordinates:
            Coordinates               Weight
  0.000000  0.000000  0.000000      1.000000
  0.032782  0.000000  0.000000      2.000000
  0.000000  0.032782  0.000000      2.000000
  0.032782  0.032782  0.000000      2.000000
 -0.032782  0.032782  0.000000      2.000000
 


--------------------------------------------------------------------------------------------------------




 Dimension of arrays:
   k-points           NKPTS =      5   k-points in BZ     NKDIM =      5   number of bands    NBANDS=    480
   number of dos      NEDOS =    301   number of ions     NIONS =     64
   non local maximal  LDIM  =      6   non local SUM 2l+1 LMDIM =     18
   total plane-waves  NPLWV = 349920
   max r-space proj   IRMAX =   1921   max aug-charges    IRDMAX=   6322
   dimension x,y,z NGX =    54 NGY =   54 NGZ =  120
   dimension x,y,z NGXF=   108 NGYF=  108 NGZF=  240
   support grid    NGXF=   108 NGYF=  108 NGZF=  240
   ions per type =              63   1
   NGX,Y,Z   is equivalent  to a cutoff of   8.83,  8.83,  9.15 a.u.
   NGXF,Y,Z  is equivalent  to a cutoff of  17.66, 17.66, 18.30 a.u.

 SYSTEM =  unknown system                          
 POSCAR =  Cu Co                                   

 Startparameter for this run:
   NWRITE =      2    write-flag & timer
   PREC   = normal    normal or accurate (medium, high low for compatibility)
   ISTART =      0    job   : 0-new  1-cont  2-samecut
   ICHARG =      2    charge: 1-file 2-atom 10-const
   ISPIN  =      2    spin polarized calculation?
   LNONCOLLINEAR =      F non collinear calculations
   LSORBIT =      F    spin-orbit coupling
   INIWAV =      1    electr: 0-lowe 1-rand  2-diag
   LASPH  =      F    aspherical Exc in radial PAW
 Electronic Relaxation 1
   ENCUT  =  450.0 eV  33.07 Ry    5.75 a.u.  17.59 17.59 37.70*2*pi/ulx,y,z
   ENINI  =  450.0     initial cutoff
   ENAUG  =  587.0 eV  augmentation charge cutoff
   NELM   =     60;   NELMIN=  2; NELMDL=  0     # of ELM steps 
   EDIFF  = 0.1E-05   stopping-criterion for ELM
   LREAL  =      T    real-space projection
   NLSPLINE    = F    spline interpolate recip. space projectors
   LCOMPAT=      F    compatible to vasp.4.4
   GGA_COMPAT  = T    GGA compatible to vasp.4.4-vasp.4.6
   LMAXPAW     = -100 max onsite density
   LMAXMIX     =    2 max onsite mixed and CHGCAR
   VOSKOWN=      0    Vosko Wilk Nusair interpolation
   ROPT   =   -0.00050  -0.00050
 Ionic relaxation
   EDIFFG = -.1E-01   stopping-criterion for IOM
   NSW    =    100    number of steps for IOM
   NBLOCK =      1;   KBLOCK =    100    inner block; outer block 
   IBRION =      3    ionic relax: 0-MD 1-quasi-New 2-CG
   NFREE  =      0    steps in history (QN), initial steepest desc. (CG)
   ISIF   =      2    stress and relaxation
   IWAVPR =     11    prediction:  0-non 1-charg 2-wave 3-comb
   ISYM   =      0    0-nonsym 1-usesym 2-fastsym
   LCORR  =      T    Harris-Foulkes like correction to forces

   POTIM  = 0.0000    time-step for ionic-motion
   TEIN   =    0.0    initial temperature
   TEBEG  =    0.0;   TEEND  =   0.0 temperature during run
   SMASS  =  -3.00    Nose mass-parameter (am)
   estimated Nose-frequenzy (Omega)   =  0.10E-29 period in steps = 0.00E+00 mass=  -0.236E-26a.u.
   SCALEE = 1.0000    scale energy and forces
   NPACO  =    256;   APACO  = 10.0  distance and # of slots for P.C.
   PSTRESS=    0.0 pullay stress

  Mass of Ions in am
   POMASS =  63.55 58.93
  Ionic Valenz
   ZVAL   =  11.00  9.00
  Atomic Wigner-Seitz radii
   RWIGS  =  -1.00 -1.00
  virtual crystal weights 
   VCA    =   1.00  1.00
   NELECT =     702.0000    total number of electrons
   NUPDOWN=      -1.0000    fix difference up-down

 DOS related values:
   EMIN   =  10.00;   EMAX   =-10.00  energy-range for DOS
   EFERMI =   0.00
   ISMEAR =     1;   SIGMA  =   0.10  broadening in eV -4-tet -1-fermi 0-gaus

 Electronic relaxation 2 (details)
   IALGO  =     68    algorithm
   LDIAG  =      T    sub-space diagonalisation (order eigenvalues)
   LSUBROT=      F    optimize rotation matrix (better conditioning)
   TURBO    =      0    0=normal 1=particle mesh
   IRESTART =      0    0=no restart 2=restart with 2 vectors
   NREBOOT  =      0    no. of reboots
   NMIN     =      0    reboot dimension
   EREF     =   0.00    reference energy to select bands
   IMIX   =      4    mixing-type and parameters
     AMIX     =   0.40;   BMIX     =  1.00
     AMIX_MAG =   1.60;   BMIX_MAG =  1.00
     AMIN     =   0.10
     WC   =   100.;   INIMIX=   1;  MIXPRE=   1;  MAXMIX= -45

 Intra band minimization:
   WEIMIN = 0.0010     energy-eigenvalue tresh-hold
   EBREAK =  0.52E-09  absolut break condition
   DEPER  =   0.30     relativ break condition  

   TIME   =   0.40     timestep for ELM

  volume/ion in A,a.u.               =      35.21       237.64
  Fermi-wavevector in a.u.,A,eV,Ry     =   1.109743  2.097110 16.755974  1.231529
  Thomas-Fermi vector in A             =   2.246286

 Write flags
   LWAVE        =      F    write WAVECAR
   LDOWNSAMPLE  =      F    k-point downsampling of WAVECAR
   LCHARG       =      T    write CHGCAR
   LVTOT        =      F    write LOCPOT, total local potential
   LVHAR        =      F    write LOCPOT, Hartree potential only
   LELF         =      F    write electronic localiz. function (ELF)
   LORBIT       =     11    0 simple, 1 ext, 2 COOP (PROOUT), +10 PAW based schemes


 Dipole corrections
   LMONO  =      F    monopole corrections only (constant potential shift)
   LDIPOL =      F    correct potential (dipole corrections)
   IDIPOL =      0    1-x, 2-y, 3-z, 4-all directions 
   EPSILON=  1.0000000 bulk dielectric constant

 Exchange correlation treatment:
   GGA     =    RP    GGA type
   LEXCH   =     9    internal setting for exchange type
   LIBXC   =     F    Libxc                    
   VOSKOWN =     0    Vosko Wilk Nusair interpolation
   LHFCALC =     F    Hartree Fock is set to
   LHFONE  =     F    Hartree Fock one center treatment
   AEXX    =    0.0000 exact exchange contribution

 Linear response parameters
   LEPSILON=     F    determine dielectric tensor
   LRPA    =     F    only Hartree local field effects (RPA)
   LNABLA  =     F    use nabla operator in PAW spheres
   LVEL    =     F    velocity operator in full k-point grid
   CSHIFT  =0.1000    complex shift for real part using Kramers Kronig
   OMEGAMAX=  -1.0    maximum frequency
   DEG_THRESHOLD= 0.2000000E-02 threshold for treating states as degnerate
   RTIME   =   -0.100 relaxation time in fs
  (WPLASMAI=    0.000 imaginary part of plasma frequency in eV, 0.658/RTIME)
   DFIELD  = 0.0000000 0.0000000 0.0000000 field for delta impulse in time

  Optional k-point grid parameters
   LKPOINTS_OPT  =     F    use optional k-point grid
   KPOINTS_OPT_MODE=     1    mode for optional k-point grid

 Orbital magnetization related:
   ORBITALMAG=     F  switch on orbital magnetization
   LCHIMAG   =     F  perturbation theory with respect to B field
   DQ        =  0.001000  dq finite difference perturbation B field
   LLRAUG    =     F  two centre corrections for induced B field



--------------------------------------------------------------------------------------------------------


 quickmin algorithm: (dynamic with friction)
   using selective dynamics as specified on POSCAR
 charge density and potential will be updated during run
 spin polarized calculation
 RMM-DIIS sequential band-by-band and
  variant of blocked Davidson during initial phase
 perform sub-space diagonalisation
    before iterative eigenvector-optimisation
 modified Broyden-mixing scheme, WC =      100.0
 initial mixing is a Kerker type mixing with AMIX =  0.4000 and BMIX =      1.0000
 Hartree-type preconditioning will be used
 using additional bands          129
 real space projection scheme for non local part
 use partial core corrections
 calculate Harris-corrections to forces   (improved forces if not selfconsistent)
 use gradient corrections 
 use of overlap-Matrix (Vanderbilt PP)
 Methfessel and Paxton  Order N= 1 SIGMA  =   0.10


--------------------------------------------------------------------------------------------------------


  energy-cutoff  :      450.00
  volume of cell :     2253.69
      direct lattice vectors                 reciprocal lattice vectors
    10.168195513  0.000000000  0.000000000     0.098345867  0.000000000  0.000000000
     0.000000000 10.168195513  0.000000000     0.000000000  0.098345867  0.000000000
     0.000000000  0.000000000 21.797500000     0.000000000  0.000000000  0.045876821

  length of vectors
    10.168195513 10.168195513 21.797500000     0.098345867  0.098345867  0.045876821



 k-points in units of 2pi/SCALE and weight: KPOINTS created by Atomic Simulation Env
   0.00000000  0.00000000  0.00000000       0.111
   0.03278196  0.00000000  0.00000000       0.222
   0.00000000  0.03278196  0.00000000       0.222
   0.03278196  0.03278196  0.00000000       0.222
  -0.03278196  0.03278196  0.00000000       0.222

 k-points in reciprocal lattice and weights: KPOINTS created by Atomic Simulation Env
   0.00000000  0.00000000  0.00000000       0.111
   0.33333333  0.00000000  0.00000000       0.222
   0.00000000  0.33333333  0.00000000       0.222
   0.33333333  0.33333333  0.00000000       0.222
  -0.33333333  0.33333333  0.00000000       0.222

 position of ions in fractional coordinates (direct lattice) 
   0.12500000  0.12500000  0.05831056
   0.12500000  0.37500000  0.05831056
   0.12500000  0.62500000  0.05831056
   0.12500000  0.87500000  0.05831056
   0.37500000  0.12500000  0.05831056
   0.37500000  0.37500000  0.05831056
   0.37500000  0.62500000  0.05831056
   0.37500000  0.87500000  0.05831056
   0.62500000  0.12500000  0.05831056
   0.62500000  0.37500000  0.05831056
   0.62500000  0.62500000  0.05831056
   0.62500000  0.87500000  0.05831056
   0.87500000  0.12500000  0.05831056
   0.87500000  0.37500000  0.05831056
   0.87500000  0.62500000  0.05831056
   0.87500000  0.87500000  0.05831056
   0.00000000  0.00000000  0.14077415
   0.00000000  0.25000000  0.14077415
   0.00000000  0.50000000  0.14077415
   0.00000000  0.75000000  0.14077415
   0.25000000  0.00000000  0.14077415
   0.25000000  0.25000000  0.14077415
   0.25000000  0.50000000  0.14077415
   0.25000000  0.75000000  0.14077415
   0.50000000  0.00000000  0.14077415
   0.50000000  0.25000000  0.14077415
   0.50000000  0.50000000  0.14077415
   0.50000000  0.75000000  0.14077415
   0.75000000  0.00000000  0.14077415
   0.75000000  0.25000000  0.14077415
   0.75000000  0.50000000  0.14077415
   0.75000000  0.75000000  0.14077415
   0.12510305  0.12510305  0.22836967
   0.12507684  0.37514736  0.22856667
   0.12507680  0.62485261  0.22856671
   0.12510303  0.87489689  0.22836964
   0.37514738  0.12507689  0.22856667
   0.37520001  0.37520000  0.22807862
   0.37519996  0.62480027  0.22807865
   0.37514738  0.87492328  0.22856665
   0.62485257  0.12507682  0.22856670
   0.62480019  0.37519993  0.22807864
   0.62480018  0.62480022  0.22807868
   0.62485258  0.87492322  0.22856669
   0.87489692  0.12510304  0.22836963
   0.87492328  0.37514737  0.22856664
   0.87492325  0.62485260  0.22856670
   0.87489692  0.87489688  0.22836962
   0.99999998  0.99999997  0.31297709
   0.99999998  0.24978033  0.31299566
   0.00000009  0.49999994  0.31340617
   0.00000000  0.75021962  0.31299570
   0.24978036  0.99999998  0.31299562
   0.25027564  0.25027564  0.31320862
   0.25319160  0.50000000  0.31338358
   0.25027564  0.74972433  0.31320865
   0.49999995  0.00000018  0.31340615
   0.50000001  0.25319169  0.31338367
   0.50000000  0.74680869  0.31338375
   0.75021962  0.00000001  0.31299562
   0.74972433  0.25027564  0.31320861
   0.74680859  0.49999997  0.31338366
   0.74972432  0.74972431  0.31320866
   0.50000030  0.50000039  0.30774916

 position of ions in cartesian coordinates  (Angst):
   1.27102444  1.27102444  1.27102444
   1.27102444  3.81307332  1.27102444
   1.27102444  6.35512220  1.27102444
   1.27102444  8.89717107  1.27102444
   3.81307332  1.27102444  1.27102444
   3.81307332  3.81307332  1.27102444
   3.81307332  6.35512220  1.27102444
   3.81307332  8.89717107  1.27102444
   6.35512220  1.27102444  1.27102444
   6.35512220  3.81307332  1.27102444
   6.35512220  6.35512220  1.27102444
   6.35512220  8.89717107  1.27102444
   8.89717107  1.27102444  1.27102444
   8.89717107  3.81307332  1.27102444
   8.89717107  6.35512220  1.27102444
   8.89717107  8.89717107  1.27102444
   0.00000000  0.00000000  3.06852444
   0.00000000  2.54204888  3.06852444
   0.00000000  5.08409776  3.06852444
   0.00000000  7.62614664  3.06852444
   2.54204888  0.00000000  3.06852444
   2.54204888  2.54204888  3.06852444
   2.54204888  5.08409776  3.06852444
   2.54204888  7.62614664  3.06852444
   5.08409776  0.00000000  3.06852444
   5.08409776  2.54204888  3.06852444
   5.08409776  5.08409776  3.06852444
   5.08409776  7.62614664  3.06852444
   7.62614664  0.00000000  3.06852444
   7.62614664  2.54204888  3.06852444
   7.62614664  5.08409776  3.06852444
   7.62614664  7.62614664  3.06852444
   1.27207222  1.27207224  4.97788778
   1.27180577  3.81457167  4.98218195
   1.27180532  6.35362346  4.98218295
   1.27207211  8.89612266  4.97788723
   3.81457189  1.27180631  4.98218204
   3.81510704  3.81510691  4.97154383
   3.81510658  6.35309132  4.97154443
   3.81457195  8.89639097  4.98218164
   6.35362312  1.27180560  4.98218274
   6.35309050  3.81510627  4.97154426
   6.35309034  6.35309081  4.97154500
   6.35362316  8.89639041  4.98218250
   8.89612299  1.27207218  4.97788692
   8.89639100  3.81457182  4.98218137
   8.89639064  6.35362336  4.98218267
   8.89612291  8.89612254  4.97788674
  10.16819532 10.16819517  6.82211804
  10.16819533  2.53981526  6.82252294
   0.00000089  5.08409710  6.83147095
   0.00000005  7.62837974  6.82252371
   2.53981556 10.16819534  6.82252206
   2.54485160  2.54485160  6.82716494
   2.57450165  5.08409776  6.83097856
   2.54485167  7.62334353  6.82716552
   5.08409721  0.00000180  6.83147048
   5.08409787  2.57450259  6.83098061
   5.08409778  7.59369680  6.83098226
   7.62837978  0.00000005  6.82252203
   7.62334357  2.54485162  6.82716475
   7.59369575  5.08409750  6.83098024
   7.62334346  7.62334335  6.82716572
   5.08410084  5.08410169  6.70816237



--------------------------------------------------------------------------------------------------------


 k-point   1 :   0.0000 0.0000 0.0000  plane waves:   48959
 k-point   2 :   0.3333 0.0000 0.0000  plane waves:   48831
 k-point   3 :   0.0000 0.3333 0.0000  plane waves:   48831
 k-point   4 :   0.3333 0.3333 0.0000  plane waves:   48791
 k-point   5 :  -0.3333 0.3333 0.0000  plane waves:   48791

 maximum and minimum number of plane-waves per node :     48959    48791

 maximum number of plane-waves:     48959
 maximum index in each direction: 
   IXMAX=   17   IYMAX=   17   IZMAX=   37
   IXMIN=  -17   IYMIN=  -17   IZMIN=  -37


 serial   3D FFT for wavefunctions
 parallel 3D FFT for charge:
    minimum data exchange during FFTs selected (reduces bandwidth)


 total amount of memory used by VASP MPI-rank0   170845. kBytes
=======================================================================

   base      :      30000. kBytes
   nonlr-proj:      20405. kBytes
   fftplans  :       3922. kBytes
   grid      :      34349. kBytes
   one-center:       1990. kBytes
   wavefun   :      80179. kBytes

     INWAV:  cpu time      0.0000: real time      0.0000
 Broyden mixing: mesh for mixing (old mesh)
   NGX = 35   NGY = 35   NGZ = 75
  (NGX  =108   NGY  =108   NGZ  =240)
  gives a total of  91875 points

 initial charge density was supplied:
 charge density of overlapping atoms calculated
 number of electron     702.0000000 magnetization      66.0000000
 keeping initial charge density in first step


--------------------------------------------------------------------------------------------------------


 Maximum index for non-local projection operator         1844
 Maximum index for augmentation-charges          329 (set IRDMAX)


--------------------------------------------------------------------------------------------------------


 First call to EWALD:  gamma=   0.135
 Maximum number of real-space cells 3x 3x 2
 Maximum number of reciprocal cells 2x 2x 4

    FEWALD:  cpu time      0.0019: real time      0.0019


--------------------------------------- Iteration      1(   1)  ---------------------------------------


    POTLOK:  cpu time      0.1667: real time      0.1686
    SETDIJ:  cpu time      0.0168: real time      0.0169
     EDDAV:  cpu time     38.0641: real time     23.5372
       DOS:  cpu time      0.0014: real time      0.0022
    --------------------------------------------
      LOOP:  cpu time     38.2490: real time     23.7249

 eigenvalue-minimisations  :  9600
 total energy-change (2. order) : 0.6117462E+04  (-0.2704023E+05)
 number of electron     702.0000000 magnetization      66.0000000
 augmentation part      702.0000000 magnetization      66.0000000

 Free energy of the ion-electron system (eV)
  ---------------------------------------------------
  alpha Z        PSCENC =      1319.33613846
  Ewald energy   TEWEN  =    282391.45123840
  -Hartree energ DENC   =   -366952.54030317
  -exchange      EXHF   =         0.00000000
  -V(xc)+E(xc)   XCENC  =      2851.41686766
  PAW double counting   =     78139.89184754   -84795.42533949
  entropy T*S    EENTRO =         0.00663295
  eigenvalues    EBANDS =      4784.80453638
  atomic energy  EATOM  =     88378.52024912
  Solvation  Ediel_sol  =         0.00000000
  ---------------------------------------------------
  free energy    TOTEN  =      6117.46186787 eV

  energy without entropy =     6117.45523492  energy(sigma->0) =     6117.45965688


--------------------------------------------------------------------------------------------------------




--------------------------------------- Iteration      1(   2)  ---------------------------------------


     EDDAV:  cpu time     38.0897: real time     23.0128
       DOS:  cpu time      0.0008: real time      0.0008
    --------------------------------------------
      LOOP:  cpu time     38.0906: real time     23.0136

 eigenvalue-minimisations  :  9600
 total energy-change (2. order) :-0.5621559E+04  (-0.5365418E+04)
 number of electron     702.0000000 magnetization      66.0000000
 augmentation part      702.0000000 magnetization      66.0000000

 Free energy of the ion-electron system (eV)
  ---------------------------------------------------
  alpha Z        PSCENC =      1319.33613846
  Ewald energy   TEWEN  =    282391.45123840
  -Hartree energ DENC   =   -366952.54030317
  -exchange      EXHF   =         0.00000000
  -V(xc)+E(xc)   XCENC  =      2851.41686766
  PAW double counting   =     78139.89184754   -84795.42533949
  entropy T*S    EENTRO =         0.00451097
  eigenvalues    EBANDS =      -836.75238766
  atomic energy  EATOM  =     88378.52024912
  Solvation  Ediel_sol  =         0.00000000
  ---------------------------------------------------
  free energy    TOTEN  =       495.90282184 eV

  energy without entropy =      495.89831087  energy(sigma->0) =      495.90131818


--------------------------------------------------------------------------------------------------------




--------------------------------------- Iteration      1(   3)  ---------------------------------------


     EDDAV:  cpu time     39.9155: real time     24.1857
       DOS:  cpu time      0.0009: real time      0.0009
    --------------------------------------------
      LOOP:  cpu time     39.9163: real time     24.1865

 eigenvalue-minimisations  : 10080
 total energy-change (2. order) :-0.6917316E+03  (-0.6344932E+03)
 number of electron     702.0000000 magnetization      66.0000000
 augmentation part      702.0000000 magnetization      66.0000000

 Free energy of the ion-electron system (eV)
  ---------------------------------------------------
  alpha Z        PSCENC =      1319.33613846
  Ewald energy   TEWEN  =    282391.45123840
  -Hartree energ DENC   =   -366952.54030317
  -exchange      EXHF   =         0.00000000
  -V(xc)+E(xc)   XCENC  =      2851.41686766
  PAW double counting   =     78139.89184754   -84795.42533949
  entropy T*S    EENTRO =        -0.00894160
  eigenvalues    EBANDS =     -1528.47057095
  atomic energy  EATOM  =     88378.52024912
  Solvation  Ediel_sol  =         0.00000000
  ---------------------------------------------------
  free energy    TOTEN  =      -195.82881402 eV

  energy without entropy =     -195.81987242  energy(sigma->0) =     -195.82583349


--------------------------------------------------------------------------------------------------------




--------------------------------------- Iteration      1(   4)  ---------------------------------------


     EDDAV:  cpu time     43.4713: real time     26.4344
       DOS:  cpu time      0.0009: real time      0.0009
    --------------------------------------------
      LOOP:  cpu time     43.4722: real time     26.4353

 eigenvalue-minimisations  : 11040
 total energy-change (2. order) :-0.3108094E+02  (-0.3079952E+02)
 number of electron     702.0000000 magnetization      66.0000000
 augmentation part      702.0000000 magnetization      66.0000000

 Free energy of the ion-electron system (eV)
  ---------------------------------------------------
  alpha Z        PSCENC =      1319.33613846
  Ewald energy   TEWEN  =    282391.45123840
  -Hartree energ DENC   =   -366952.54030317
  -exchange      EXHF   =         0.00000000
  -V(xc)+E(xc)   XCENC  =      2851.41686766
  PAW double counting   =     78139.89184754   -84795.42533949
  entropy T*S    EENTRO =        -0.00503097
  eigenvalues    EBANDS =     -1559.55541864
  atomic energy  EATOM  =     88378.52024912
  Solvation  Ediel_sol  =         0.00000000
  ---------------------------------------------------
  free energy    TOTEN  =      -226.90975108 eV

  energy without entropy =     -226.90472011  energy(sigma->0) =     -226.90807409


--------------------------------------------------------------------------------------------------------




--------------------------------------- Iteration      1(   5)  ---------------------------------------


     EDDAV:  cpu time     43.7390: real time     26.4416
       DOS:  cpu time      0.0009: real time      0.0009
    CHARGE:  cpu time      1.0268: real time      1.0364
    MIXING:  cpu time      0.0023: real time      0.0023
    --------------------------------------------
      LOOP:  cpu time     44.7689: real time     27.4812

 eigenvalue-minimisations  : 11088
 total energy-change (2. order) :-0.6235502E+00  (-0.6233136E+00)
 number of electron     702.0001665 magnetization      59.8438596
 augmentation part      418.1020406 magnetization      56.8126798

 Broyden mixing:
  rms(total) = 0.70024E+01    rms(broyden)= 0.70023E+01
  rms(prec ) = 0.72890E+01
  weight for this iteration     100.00

 Free energy of the ion-electron system (eV)
  ---------------------------------------------------
  alpha Z        PSCENC =      1319.33613846
  Ewald energy   TEWEN  =    282391.45123840
  -Hartree energ DENC   =   -366952.54030317
  -exchange      EXHF   =         0.00000000
  -V(xc)+E(xc)   XCENC  =      2851.41686766
  PAW double counting   =     78139.89184754   -84795.42533949
  entropy T*S    EENTRO =        -0.00493408
  eigenvalues    EBANDS =     -1560.17906569
  atomic energy  EATOM  =     88378.52024912
  Solvation  Ediel_sol  =         0.00000000
  ---------------------------------------------------
  free energy    TOTEN  =      -227.53330123 eV

  energy without entropy =     -227.52836716  energy(sigma->0) =     -227.53165654


--------------------------------------------------------------------------------------------------------




--------------------------------------- Iteration      1(   6)  ---------------------------------------


    POTLOK:  cpu time      0.1845: real time      0.1855
    SETDIJ:  cpu time      0.0173: real time      0.0174
    EDDIAG:  cpu time      6.1524: real time      4.2952
  RMM-DIIS:  cpu time     13.7238: real time     10.9155
    ORTHCH:  cpu time      1.9092: real time      1.0927
       DOS:  cpu time      0.0010: real time      0.0010
    CHARGE:  cpu time      1.0130: real time      1.0214
    MIXING:  cpu time      0.0027: real time      0.0037
    --------------------------------------------
      LOOP:  cpu time     23.0040: real time     17.5325

 eigenvalue-minimisations  :  9627
 total energy-change (2. order) : 0.2963116E+02  (-0.5265744E+02)
 number of electron     702.0001809 magnetization      56.1777617
 augmentation part      470.6025663 magnetization      41.3336660

 Broyden mixing:
  rms(total) = 0.51682E+01    rms(broyden)= 0.51680E+01
  rms(prec ) = 0.54779E+01
  weight for this iteration     100.00

 eigenvalues of (default mixing * dielectric matrix)
  average eigenvalue GAMMA=   0.6581
  0.6581

 Free energy of the ion-electron system (eV)
  ---------------------------------------------------
  alpha Z        PSCENC =      1319.33613846
  Ewald energy   TEWEN  =    282391.45123840
  -Hartree energ DENC   =   -365344.24730681
  -exchange      EXHF   =         0.00000000
  -V(xc)+E(xc)   XCENC  =      2788.98968953
  PAW double counting   =     78811.61480150   -85156.33743600
  entropy T*S    EENTRO =        -0.00721610
  eigenvalues    EBANDS =     -3387.22230266
  atomic energy  EATOM  =     88378.52024912
  Solvation  Ediel_sol  =         0.00000000
  ---------------------------------------------------
  free energy    TOTEN  =      -197.90214455 eV

  energy without entropy =     -197.89492845  energy(sigma->0) =     -197.89973918


--------------------------------------------------------------------------------------------------------




--------------------------------------- Iteration      1(   7)  ---------------------------------------


    POTLOK:  cpu time      0.1482: real time      0.1490
    SETDIJ:  cpu time      0.0182: real time      0.0183
    EDDIAG:  cpu time      6.1487: real time      4.2810
  RMM-DIIS:  cpu time     13.9379: real time     11.0356
    ORTHCH:  cpu time      1.9235: real time      1.1106
       DOS:  cpu time      0.0013: real time      0.0013
    CHARGE:  cpu time      1.0309: real time      1.0394
    MIXING:  cpu time      0.0027: real time      0.0027
    --------------------------------------------
      LOOP:  cpu time     23.2114: real time     17.6379

 eigenvalue-minimisations  :  9649
 total energy-change (2. order) : 0.3414717E+02  (-0.1011290E+02)
 number of electron     702.0001743 magnetization      54.4350971
 augmentation part      447.2018956 magnetization      36.8046002

 Broyden mixing:
  rms(total) = 0.52627E+01    rms(broyden)= 0.52626E+01
  rms(prec ) = 0.61307E+01
  weight for this iteration     100.00

 eigenvalues of (default mixing * dielectric matrix)
  average eigenvalue GAMMA=   0.6754
  1.0000  0.3508

 Free energy of the ion-electron system (eV)
  ---------------------------------------------------
  alpha Z        PSCENC =      1319.33613846
  Ewald energy   TEWEN  =    282391.45123840
  -Hartree energ DENC   =   -366077.74529172
  -exchange      EXHF   =         0.00000000
  -V(xc)+E(xc)   XCENC  =      2823.87743262
  PAW double counting   =     80330.65181063   -86948.39047132
  entropy T*S    EENTRO =         0.00499362
  eigenvalues    EBANDS =     -2381.46107622
  atomic energy  EATOM  =     88378.52024912
  Solvation  Ediel_sol  =         0.00000000
  ---------------------------------------------------
  free energy    TOTEN  =      -163.75497642 eV

  energy without entropy =     -163.75997004  energy(sigma->0) =     -163.75664096


--------------------------------------------------------------------------------------------------------




--------------------------------------- Iteration      1(   8)  ---------------------------------------


    POTLOK:  cpu time      0.1829: real time      0.1839
    SETDIJ:  cpu time      0.0171: real time      0.0172
    EDDIAG:  cpu time      6.1462: real time      4.2797
  RMM-DIIS:  cpu time     13.9685: real time     11.0724
    ORTHCH:  cpu time      1.9151: real time      1.1086
       DOS:  cpu time      0.0010: real time      0.0010
    CHARGE:  cpu time      1.0147: real time      1.0232
    MIXING:  cpu time      0.0028: real time      0.0028
    --------------------------------------------
      LOOP:  cpu time     23.2482: real time     17.6887

 eigenvalue-minimisations  :  9694
 total energy-change (2. order) : 0.3150171E+01  (-0.4832347E+01)
 number of electron     702.0001749 magnetization      48.6220798
 augmentation part      448.8656825 magnetization      30.6501631

 Broyden mixing:
  rms(total) = 0.32325E+01    rms(broyden)= 0.32324E+01
  rms(prec ) = 0.35093E+01
  weight for this iteration     100.00

 eigenvalues of (default mixing * dielectric matrix)
  average eigenvalue GAMMA= ********
  0.8636********  0.1608

 Free energy of the ion-electron system (eV)
  ---------------------------------------------------
  alpha Z        PSCENC =      1319.33613846
  Ewald energy   TEWEN  =    282391.45123840
  -Hartree energ DENC   =   -366205.41151284
  -exchange      EXHF   =         0.00000000
  -V(xc)+E(xc)   XCENC  =      2827.36826213
  PAW double counting   =     80742.97070624   -87404.77625217
  entropy T*S    EENTRO =        -0.00260099
  eigenvalues    EBANDS =     -2210.06103339
  atomic energy  EATOM  =     88378.52024912
  Solvation  Ediel_sol  =         0.00000000
  ---------------------------------------------------
  free energy    TOTEN  =      -160.60480503 eV

  energy without entropy =     -160.60220404  energy(sigma->0) =     -160.60393804


--------------------------------------------------------------------------------------------------------




--------------------------------------- Iteration      1(   9)  ---------------------------------------


    POTLOK:  cpu time      0.1814: real time      0.1823
    SETDIJ:  cpu time      0.0171: real time      0.0172
    EDDIAG:  cpu time      6.1522: real time      4.2770
  RMM-DIIS:  cpu time     13.9489: real time     11.0419
    ORTHCH:  cpu time      1.8921: real time      1.0780
       DOS:  cpu time      0.0011: real time      0.0011
    CHARGE:  cpu time      1.0192: real time      1.0277
    MIXING:  cpu time      0.0027: real time      0.0027
    --------------------------------------------
      LOOP:  cpu time     23.2148: real time     17.6279

 eigenvalue-minimisations  :  9663
 total energy-change (2. order) : 0.1893077E+02  (-0.1538761E+01)
 number of electron     702.0001752 magnetization      44.2864431
 augmentation part      450.7125565 magnetization      24.4775760

 Broyden mixing:
  rms(total) = 0.24032E+01    rms(broyden)= 0.24032E+01
  rms(prec ) = 0.26942E+01
  weight for this iteration     100.00

 eigenvalues of (default mixing * dielectric matrix)
  average eigenvalue GAMMA= ********
  1.0000  0.4975********  0.7166

 Free energy of the ion-electron system (eV)
  ---------------------------------------------------
  alpha Z        PSCENC =      1319.33613846
  Ewald energy   TEWEN  =    282391.45123840
  -Hartree energ DENC   =   -366284.46844082
  -exchange      EXHF   =         0.00000000
  -V(xc)+E(xc)   XCENC  =      2832.19498257
  PAW double counting   =     81758.79559778   -88479.47266721
  entropy T*S    EENTRO =        -0.02034314
  eigenvalues    EBANDS =     -2058.01078811
  atomic energy  EATOM  =     88378.52024912
  Solvation  Ediel_sol  =         0.00000000
  ---------------------------------------------------
  free energy    TOTEN  =      -141.67403293 eV

  energy without entropy =     -141.65368980  energy(sigma->0) =     -141.66725189


--------------------------------------------------------------------------------------------------------




--------------------------------------- Iteration      1(  10)  ---------------------------------------


    POTLOK:  cpu time      0.1875: real time      0.1884
    SETDIJ:  cpu time      0.0172: real time      0.0173
    EDDIAG:  cpu time      6.1843: real time      4.3054
  RMM-DIIS:  cpu time     13.9304: real time     11.0260
    ORTHCH:  cpu time      1.8951: real time      1.0850
       DOS:  cpu time      0.0010: real time      0.0010
    CHARGE:  cpu time      1.0204: real time      1.0290
    MIXING:  cpu time      0.0030: real time      0.0031
    --------------------------------------------
      LOOP:  cpu time     23.2390: real time     17.6551

 eigenvalue-minimisations  :  9665
 total energy-change (2. order) : 0.6208836E+01  (-0.7738120E+00)
 number of electron     702.0001746 magnetization      42.7898916
 augmentation part      449.1041192 magnetization      23.0620009

 Broyden mixing:
  rms(total) = 0.18562E+01    rms(broyden)= 0.18562E+01
  rms(prec ) = 0.20776E+01
  weight for this iteration     100.00

 eigenvalues of (default mixing * dielectric matrix)
  average eigenvalue GAMMA= ********
 10.7732********  0.1979********  0.3695

 Free energy of the ion-electron system (eV)
  ---------------------------------------------------
  alpha Z        PSCENC =      1319.33613846
  Ewald energy   TEWEN  =    282391.45123840
  -Hartree energ DENC   =   -366402.63207464
  -exchange      EXHF   =         0.00000000
  -V(xc)+E(xc)   XCENC  =      2831.91835858
  PAW double counting   =     82273.51805082   -89036.20935861
  entropy T*S    EENTRO =        -0.01614336
  eigenvalues    EBANDS =     -1891.35165551
  atomic energy  EATOM  =     88378.52024912
  Solvation  Ediel_sol  =         0.00000000
  ---------------------------------------------------
  free energy    TOTEN  =      -135.46519673 eV

  energy without entropy =     -135.44905337  energy(sigma->0) =     -135.45981561


--------------------------------------------------------------------------------------------------------




--------------------------------------- Iteration      1(  11)  ---------------------------------------


    POTLOK:  cpu time      0.1896: real time      0.1905
    SETDIJ:  cpu time      0.0169: real time      0.0170
    EDDIAG:  cpu time      6.1845: real time      4.3010
  RMM-DIIS:  cpu time     13.9852: real time     11.0927
    ORTHCH:  cpu time      1.9077: real time      1.0956
       DOS:  cpu time      0.0010: real time      0.0010
    CHARGE:  cpu time      1.0162: real time      1.0250
    MIXING:  cpu time      0.0032: real time      0.0032
    --------------------------------------------
      LOOP:  cpu time     23.3042: real time     17.7261

 eigenvalue-minimisations  :  9701
 total energy-change (2. order) : 0.2329301E+01  (-0.2959617E+00)
 number of electron     702.0001747 magnetization      41.2622145
 augmentation part      449.4849319 magnetization      22.0918525

 Broyden mixing:
  rms(total) = 0.15039E+01    rms(broyden)= 0.15039E+01
  rms(prec ) = 0.16350E+01
  weight for this iteration     100.00

 eigenvalues of (default mixing * dielectric matrix)
  average eigenvalue GAMMA= ********
  1.0000  3.3765********  0.3400********  0.8517

 Free energy of the ion-electron system (eV)
  ---------------------------------------------------
  alpha Z        PSCENC =      1319.33613846
  Ewald energy   TEWEN  =    282391.45123840
  -Hartree energ DENC   =   -366391.86271322
  -exchange      EXHF   =         0.00000000
  -V(xc)+E(xc)   XCENC  =      2831.63771816
  PAW double counting   =     82328.21543386   -89092.45376890
  entropy T*S    EENTRO =        -0.01110759
  eigenvalues    EBANDS =     -1897.96908441
  atomic energy  EATOM  =     88378.52024912
  Solvation  Ediel_sol  =         0.00000000
  ---------------------------------------------------
  free energy    TOTEN  =      -133.13589611 eV

  energy without entropy =     -133.12478853  energy(sigma->0) =     -133.13219359


--------------------------------------------------------------------------------------------------------




--------------------------------------- Iteration      1(  12)  ---------------------------------------


    POTLOK:  cpu time      0.1877: real time      0.1886
    SETDIJ:  cpu time      0.0169: real time      0.0170
    EDDIAG:  cpu time      6.1811: real time      4.3283
  RMM-DIIS:  cpu time     14.0903: real time     11.1366
    ORTHCH:  cpu time      1.9589: real time      1.1475
       DOS:  cpu time      0.0010: real time      0.0010
    CHARGE:  cpu time      1.0173: real time      1.0264
    MIXING:  cpu time      0.0033: real time      0.0034
    --------------------------------------------
      LOOP:  cpu time     23.4566: real time     17.8489

 eigenvalue-minimisations  :  9744
 total energy-change (2. order) :-0.1948241E+00  (-0.1264876E+00)
 number of electron     702.0001748 magnetization      24.0847925
 augmentation part      449.1214005 magnetization       5.1449984

 Broyden mixing:
  rms(total) = 0.11473E+01    rms(broyden)= 0.11472E+01
  rms(prec ) = 0.11735E+01
  weight for this iteration     100.00

 eigenvalues of (default mixing * dielectric matrix)
  average eigenvalue GAMMA= ********
  1.0617********  0.6971******** 31.7617********  0.2766

 Free energy of the ion-electron system (eV)
  ---------------------------------------------------
  alpha Z        PSCENC =      1319.33613846
  Ewald energy   TEWEN  =    282391.45123840
  -Hartree energ DENC   =   -366409.06870776
  -exchange      EXHF   =         0.00000000
  -V(xc)+E(xc)   XCENC  =      2830.59473161
  PAW double counting   =     82366.61194677   -89132.74640332
  entropy T*S    EENTRO =         0.01607497
  eigenvalues    EBANDS =     -1878.04598847
  atomic energy  EATOM  =     88378.52024912
  Solvation  Ediel_sol  =         0.00000000
  ---------------------------------------------------
  free energy    TOTEN  =      -133.33072022 eV

  energy without entropy =     -133.34679519  energy(sigma->0) =     -133.33607854


--------------------------------------------------------------------------------------------------------




--------------------------------------- Iteration      1(  13)  ---------------------------------------


    POTLOK:  cpu time      0.1912: real time      0.1921
    SETDIJ:  cpu time      0.0172: real time      0.0173
    EDDIAG:  cpu time      6.1259: real time      4.2764
  RMM-DIIS:  cpu time     23.3959: real time     19.3067
    ORTHCH:  cpu time      1.9088: real time      1.1008
       DOS:  cpu time      0.0010: real time      0.0010
    CHARGE:  cpu time      1.0350: real time      1.0442
    MIXING:  cpu time      0.0034: real time      0.0034
    --------------------------------------------
      LOOP:  cpu time     32.6784: real time     25.9419

 eigenvalue-minimisations  : 12217
 total energy-change (2. order) :-0.2168682E+02  (-0.5652854E+00)
 number of electron     702.0001736 magnetization      18.3060445
 augmentation part      446.1571696 magnetization       3.9243620

 Broyden mixing:
  rms(total) = 0.49917E+01    rms(broyden)= 0.49917E+01
  rms(prec ) = 0.59629E+01
  weight for this iteration     100.00

 eigenvalues of (default mixing * dielectric matrix)
  average eigenvalue GAMMA= ********
  1.0000  1.5959********  0.6482********  0.6320********  0.3137

 Free energy of the ion-electron system (eV)
  ---------------------------------------------------
  alpha Z        PSCENC =      1319.33613846
  Ewald energy   TEWEN  =    282391.45123840
  -Hartree energ DENC   =   -366541.56379001
  -exchange      EXHF   =         0.00000000
  -V(xc)+E(xc)   XCENC  =      2825.93295743
  PAW double counting   =     82940.36612695   -89743.25741811
  entropy T*S    EENTRO =         0.01412477
  eigenvalues    EBANDS =     -1725.81716849
  atomic energy  EATOM  =     88378.52024912
  Solvation  Ediel_sol  =         0.00000000
  ---------------------------------------------------
  free energy    TOTEN  =      -155.01754148 eV

  energy without entropy =     -155.03166625  energy(sigma->0) =     -155.02224973


--------------------------------------------------------------------------------------------------------




--------------------------------------- Iteration      1(  14)  ---------------------------------------


    POTLOK:  cpu time      0.1459: real time      0.1467
    SETDIJ:  cpu time      0.0173: real time      0.0174
    EDDIAG:  cpu time      6.1712: real time      4.3032
  RMM-DIIS:  cpu time     14.2845: real time     11.3910
    ORTHCH:  cpu time      1.9156: real time      1.1045
       DOS:  cpu time      0.0023: real time      0.0023
    CHARGE:  cpu time      1.0332: real time      1.0416
    MIXING:  cpu time      0.0036: real time      0.0036
    --------------------------------------------
      LOOP:  cpu time     23.5736: real time     18.0103

 eigenvalue-minimisations  :  9880
 total energy-change (2. order) : 0.1215917E+01  (-0.1577334E+00)
 number of electron     702.0001737 magnetization      17.6663464
 augmentation part      446.1631556 magnetization       4.5807124

 Broyden mixing:
  rms(total) = 0.47685E+01    rms(broyden)= 0.47685E+01
  rms(prec ) = 0.56583E+01
  weight for this iteration     100.00

 eigenvalues of (default mixing * dielectric matrix)
  average eigenvalue GAMMA= ********
  0.6846********  1.0185********  0.8802********  0.4964********  0.3224

 Free energy of the ion-electron system (eV)
  ---------------------------------------------------
  alpha Z        PSCENC =      1319.33613846
  Ewald energy   TEWEN  =    282391.45123840
  -Hartree energ DENC   =   -366609.51719024
  -exchange      EXHF   =         0.00000000
  -V(xc)+E(xc)   XCENC  =      2821.98140196
  PAW double counting   =     83169.85541867   -89985.76170974
  entropy T*S    EENTRO =         0.00273026
  eigenvalues    EBANDS =     -1639.66990145
  atomic energy  EATOM  =     88378.52024912
  Solvation  Ediel_sol  =         0.00000000
  ---------------------------------------------------
  free energy    TOTEN  =      -153.80162455 eV

  energy without entropy =     -153.80435481  energy(sigma->0) =     -153.80253464


--------------------------------------------------------------------------------------------------------




--------------------------------------- Iteration      1(  15)  ---------------------------------------


    POTLOK:  cpu time      0.1832: real time      0.1842
    SETDIJ:  cpu time      0.0171: real time      0.0171
    EDDIAG:  cpu time      6.1325: real time      4.2655
  RMM-DIIS:  cpu time     15.3646: real time     12.1018
    ORTHCH:  cpu time      1.9098: real time      1.1006
       DOS:  cpu time      0.0009: real time      0.0009
    CHARGE:  cpu time      1.0158: real time      1.0247
    MIXING:  cpu time      0.0038: real time      0.0038
    --------------------------------------------
      LOOP:  cpu time     24.6277: real time     18.6987

 eigenvalue-minimisations  : 10321
 total energy-change (2. order) : 0.6572640E+01  (-0.2508939E+00)
 number of electron     702.0001745 magnetization      15.4331181
 augmentation part      448.8657505 magnetization       2.8721054

 Broyden mixing:
  rms(total) = 0.60040E+00    rms(broyden)= 0.59996E+00
  rms(prec ) = 0.66388E+00
  weight for this iteration     100.00

 eigenvalues of (default mixing * dielectric matrix)
  average eigenvalue GAMMA= ********
  1.0000  1.6202********  0.3334********  0.4778********  0.2711********  0.4418

 Free energy of the ion-electron system (eV)
  ---------------------------------------------------
  alpha Z        PSCENC =      1319.33613846
  Ewald energy   TEWEN  =    282391.45123840
  -Hartree energ DENC   =   -366627.94143684
  -exchange      EXHF   =         0.00000000
  -V(xc)+E(xc)   XCENC  =      2818.42043995
  PAW double counting   =     83230.11326269   -90047.59459821
  entropy T*S    EENTRO =        -0.00334104
  eigenvalues    EBANDS =     -1609.53093757
  atomic energy  EATOM  =     88378.52024912
  Solvation  Ediel_sol  =         0.00000000
  ---------------------------------------------------
  free energy    TOTEN  =      -147.22898505 eV

  energy without entropy =     -147.22564401  energy(sigma->0) =     -147.22787137


--------------------------------------------------------------------------------------------------------




--------------------------------------- Iteration      1(  16)  ---------------------------------------


    POTLOK:  cpu time      0.1847: real time      0.1857
    SETDIJ:  cpu time      0.0172: real time      0.0173
    EDDIAG:  cpu time      6.1278: real time      4.2710
  RMM-DIIS:  cpu time     20.4497: real time     16.9811
    ORTHCH:  cpu time      1.8854: real time      1.0769
       DOS:  cpu time      0.0011: real time      0.0011
    CHARGE:  cpu time      1.0170: real time      1.0254
    MIXING:  cpu time      0.0039: real time      0.0039
    --------------------------------------------
      LOOP:  cpu time     29.6868: real time     23.5624

 eigenvalue-minimisations  : 10712
 total energy-change (2. order) :-0.7266885E+01  (-0.2348047E+00)
 number of electron     702.0001747 magnetization      11.2366420
 augmentation part      448.9451092 magnetization      -0.2034218

 Broyden mixing:
  rms(total) = 0.45725E+00    rms(broyden)= 0.45719E+00
  rms(prec ) = 0.49779E+00
  weight for this iteration     100.00

 eigenvalues of (default mixing * dielectric matrix)
  average eigenvalue GAMMA= ********
  0.6728********  0.4511********  0.8280********  1.4486********  0.3480********
  0.2817

 Free energy of the ion-electron system (eV)
  ---------------------------------------------------
  alpha Z        PSCENC =      1319.33613846
  Ewald energy   TEWEN  =    282391.45123840
  -Hartree energ DENC   =   -366638.34987470
  -exchange      EXHF   =         0.00000000
  -V(xc)+E(xc)   XCENC  =      2812.84075716
  PAW double counting   =     83198.96071886   -90014.40675159
  entropy T*S    EENTRO =        -0.03606864
  eigenvalues    EBANDS =     -1602.81227730
  atomic energy  EATOM  =     88378.52024912
  Solvation  Ediel_sol  =         0.00000000
  ---------------------------------------------------
  free energy    TOTEN  =      -154.49587023 eV

  energy without entropy =     -154.45980159  energy(sigma->0) =     -154.48384735


--------------------------------------------------------------------------------------------------------




--------------------------------------- Iteration      1(  17)  ---------------------------------------


    POTLOK:  cpu time      0.1452: real time      0.1461
    SETDIJ:  cpu time      0.0179: real time      0.0180
    EDDIAG:  cpu time      6.1226: real time      4.2716
  RMM-DIIS:  cpu time     17.7170: real time     13.7658
    ORTHCH:  cpu time      1.8964: real time      1.0826
       DOS:  cpu time      0.0011: real time      0.0011
    CHARGE:  cpu time      1.0212: real time      1.0302
    MIXING:  cpu time      0.0041: real time      0.0041
    --------------------------------------------
      LOOP:  cpu time     26.9255: real time     20.3194

 eigenvalue-minimisations  : 11776
 total energy-change (2. order) :-0.1491490E+02  (-0.9529861E+00)
 number of electron     702.0001747 magnetization      10.4611261
 augmentation part      447.6537109 magnetization       1.6955354

 Broyden mixing:
  rms(total) = 0.20648E+01    rms(broyden)= 0.20647E+01
  rms(prec ) = 0.23835E+01
  weight for this iteration     100.00

 eigenvalues of (default mixing * dielectric matrix)
  average eigenvalue GAMMA= ********
  1.0000  1.6398********  1.1699********  0.4978********  0.4493********  0.3364
********  0.2441

 Free energy of the ion-electron system (eV)
  ---------------------------------------------------
  alpha Z        PSCENC =      1319.33613846
  Ewald energy   TEWEN  =    282391.45123840
  -Hartree energ DENC   =   -366600.98529127
  -exchange      EXHF   =         0.00000000
  -V(xc)+E(xc)   XCENC  =      2803.11958939
  PAW double counting   =     82893.03858062   -89690.45599431
  entropy T*S    EENTRO =        -0.00801826
  eigenvalues    EBANDS =     -1663.42726209
  atomic energy  EATOM  =     88378.52024912
  Solvation  Ediel_sol  =         0.00000000
  ---------------------------------------------------
  free energy    TOTEN  =      -169.41076994 eV

  energy without entropy =     -169.40275168  energy(sigma->0) =     -169.40809718


--------------------------------------------------------------------------------------------------------




[...]
   0.919E+00 0.919E+00 0.110E+04   -.742E+00 -.742E+00 -.110E+04   -.179E+00 -.179E+00 -.440E+00   0.592E-03 0.589E-03 -.349E-02
   0.290E+01 -.107E-03 0.110E+04   -.299E+01 0.103E-03 -.110E+04   0.688E-01 0.161E-05 -.694E-01   0.158E-02 0.306E-05 -.170E-02
   0.918E+00 -.919E+00 0.110E+04   -.741E+00 0.742E+00 -.110E+04   -.179E+00 0.179E+00 -.440E+00   0.594E-03 -.590E-03 -.349E-02
   -.650E-04 0.161E-03 0.109E+04   0.675E-04 -.162E-03 -.109E+04   -.114E-05 -.123E-05 -.209E+00   -.138E-05 0.175E-05 -.348E-02
   -.131E-03 0.290E+01 0.110E+04   0.127E-03 -.299E+01 -.110E+04   0.165E-05 0.688E-01 -.694E-01   0.297E-05 0.158E-02 -.170E-02
   -.141E-03 -.105E-03 0.110E+04   0.139E-03 0.103E-03 -.110E+04   0.292E-05 0.378E-05 0.323E+00   -.440E-06 -.925E-06 0.264E-02
   -.122E-03 -.290E+01 0.110E+04   0.125E-03 0.299E+01 -.110E+04   0.241E-05 -.688E-01 -.694E-01   -.467E-05 -.158E-02 -.170E-02
   0.123E+01 0.101E-03 0.110E+04   -.128E+01 -.104E-03 -.110E+04   0.384E-01 -.104E-05 -.122E+00   -.182E-03 0.346E-05 -.410E-02
   -.919E+00 0.918E+00 0.110E+04   0.742E+00 -.741E+00 -.110E+04   0.179E+00 -.179E+00 -.440E+00   -.595E-03 0.591E-03 -.349E-02
   -.290E+01 -.922E-04 0.110E+04   0.299E+01 0.952E-04 -.110E+04   -.688E-01 0.242E-05 -.694E-01   -.158E-02 -.481E-05 -.170E-02
   -.918E+00 -.918E+00 0.110E+04   0.741E+00 0.741E+00 -.110E+04   0.179E+00 0.179E+00 -.440E+00   -.593E-03 -.590E-03 -.349E-02
   -.166E+01 -.166E+01 -.113E+04   0.173E+01 0.173E+01 0.113E+04   -.711E-01 -.711E-01 0.557E+00   0.259E-02 0.258E-02 -.157E-01
   -.136E+01 -.404E+01 -.114E+04   0.123E+01 0.397E+01 0.113E+04   0.133E+00 0.673E-01 0.525E+00   0.157E-02 0.346E-02 -.856E-02
   -.136E+01 0.404E+01 -.114E+04   0.123E+01 -.397E+01 0.113E+04   0.133E+00 -.673E-01 0.525E+00   0.157E-02 -.346E-02 -.856E-02
   -.166E+01 0.166E+01 -.113E+04   0.173E+01 -.173E+01 0.113E+04   -.711E-01 0.711E-01 0.557E+00   0.260E-02 -.258E-02 -.156E-01
   -.404E+01 -.136E+01 -.114E+04   0.397E+01 0.123E+01 0.113E+04   0.673E-01 0.133E+00 0.525E+00   0.345E-02 0.157E-02 -.856E-02
   -.216E+01 -.216E+01 -.113E+04   0.278E+01 0.278E+01 0.113E+04   -.633E+00 -.633E+00 -.432E+00   0.947E-02 0.946E-02 0.286E-02
   -.216E+01 0.216E+01 -.113E+04   0.278E+01 -.278E+01 0.113E+04   -.633E+00 0.633E+00 -.432E+00   0.946E-02 -.946E-02 0.285E-02
   -.404E+01 0.136E+01 -.114E+04   0.397E+01 -.123E+01 0.113E+04   0.673E-01 -.133E+00 0.525E+00   0.344E-02 -.157E-02 -.855E-02
   0.404E+01 -.136E+01 -.114E+04   -.397E+01 0.123E+01 0.113E+04   -.673E-01 0.133E+00 0.525E+00   -.345E-02 0.157E-02 -.856E-02
   0.216E+01 -.216E+01 -.113E+04   -.278E+01 0.278E+01 0.113E+04   0.633E+00 -.633E+00 -.432E+00   -.946E-02 0.946E-02 0.285E-02
   0.216E+01 0.216E+01 -.113E+04   -.278E+01 -.278E+01 0.113E+04   0.633E+00 0.633E+00 -.432E+00   -.947E-02 -.947E-02 0.284E-02
   0.404E+01 0.136E+01 -.114E+04   -.397E+01 -.123E+01 0.113E+04   -.673E-01 -.133E+00 0.525E+00   -.345E-02 -.156E-02 -.855E-02
   0.166E+01 -.166E+01 -.113E+04   -.173E+01 0.173E+01 0.113E+04   0.711E-01 -.711E-01 0.557E+00   -.259E-02 0.258E-02 -.156E-01
   0.136E+01 -.404E+01 -.114E+04   -.123E+01 0.397E+01 0.113E+04   -.133E+00 0.673E-01 0.525E+00   -.157E-02 0.345E-02 -.856E-02
   0.136E+01 0.404E+01 -.114E+04   -.123E+01 -.397E+01 0.113E+04   -.133E+00 -.673E-01 0.525E+00   -.156E-02 -.346E-02 -.856E-02
   0.166E+01 0.166E+01 -.113E+04   -.173E+01 -.173E+01 0.113E+04   0.711E-01 0.711E-01 0.557E+00   -.259E-02 -.258E-02 -.157E-01
   -.103E-04 -.181E-05 -.330E+04   0.972E-05 0.170E-05 0.329E+04   0.216E-06 0.210E-06 0.332E+01   0.752E-06 0.251E-06 -.172E-01
   -.354E-04 -.735E+01 -.329E+04   0.398E-04 0.744E+01 0.329E+04   0.940E-06 -.911E-01 0.361E+01   -.583E-05 0.947E-03 -.889E-02
   -.256E-03 0.369E-04 -.329E+04   0.252E-03 -.366E-04 0.329E+04   0.447E-05 0.180E-05 0.370E+01   -.900E-06 -.199E-05 0.655E-03
   -.107E-03 0.735E+01 -.329E+04   0.101E-03 -.744E+01 0.329E+04   0.512E-06 0.911E-01 0.361E+01   0.638E-05 -.946E-03 -.889E-02
   -.735E+01 -.522E-04 -.329E+04   0.744E+01 0.565E-04 0.329E+04   -.911E-01 0.782E-06 0.361E+01   0.942E-03 -.561E-05 -.888E-02
   -.866E+01 -.866E+01 -.330E+04   0.855E+01 0.855E+01 0.329E+04   0.110E+00 0.110E+00 0.355E+01   0.354E-02 0.352E-02 -.458E-02
   -.222E+02 0.126E-03 -.330E+04   0.231E+02 -.126E-03 0.330E+04   -.897E+00 -.215E-05 0.323E+01   0.980E-02 0.152E-05 0.127E-02
   -.866E+01 0.866E+01 -.330E+04   0.855E+01 -.855E+01 0.329E+04   0.110E+00 -.110E+00 0.355E+01   0.354E-02 -.352E-02 -.458E-02
   0.457E-04 -.356E-03 -.329E+04   -.452E-04 0.351E-03 0.329E+04   0.604E-06 0.539E-05 0.370E+01   -.113E-05 -.158E-06 0.658E-03
   0.121E-03 -.222E+02 -.330E+04   -.121E-03 0.231E+02 0.330E+04   -.174E-05 -.897E+00 0.323E+01   0.211E-05 0.980E-02 0.128E-02
   0.182E-03 0.222E+02 -.330E+04   -.173E-03 -.231E+02 0.330E+04   -.110E-05 0.897E+00 0.323E+01   -.898E-05 -.979E-02 0.127E-02
   0.735E+01 -.125E-03 -.329E+04   -.744E+01 0.118E-03 0.329E+04   0.911E-01 0.474E-06 0.361E+01   -.942E-03 0.650E-05 -.888E-02
   0.866E+01 -.866E+01 -.330E+04   -.855E+01 0.855E+01 0.329E+04   -.110E+00 0.110E+00 0.355E+01   -.353E-02 0.352E-02 -.458E-02
   0.222E+02 0.199E-03 -.330E+04   -.231E+02 -.188E-03 0.330E+04   0.897E+00 -.192E-05 0.323E+01   -.979E-02 -.947E-05 0.126E-02
   0.866E+01 0.866E+01 -.330E+04   -.855E+01 -.855E+01 0.329E+04   -.110E+00 -.110E+00 0.355E+01   -.353E-02 -.352E-02 -.457E-02
   0.429E-03 0.583E-03 -.265E+04   -.425E-03 -.581E-03 0.264E+04   -.986E-06 0.657E-06 0.341E+01   -.423E-05 -.476E-05 -.381E-02
 -----------------------------------------------------------------------------------------------
   -.399E-05 -.491E-05 0.319E+01   0.441E-12 -.409E-12 0.177E-10   0.264E-05 0.494E-05 -.282E+01   0.319E-05 0.356E-05 -.245E+00


 POSITION                                       TOTAL-FORCE (eV/Angst)
 -----------------------------------------------------------------------------------
      1.27102      1.27102      1.27102        -0.010873     -0.010873     -0.198633
      1.27102      3.81307      1.27102         0.005480      0.013616     -0.202256
      1.27102      6.35512      1.27102         0.005481     -0.013616     -0.202256
      1.27102      8.89717      1.27102        -0.010873      0.010873     -0.198633
      3.81307      1.27102      1.27102         0.013616      0.005480     -0.202256
      3.81307      3.81307      1.27102        -0.000262     -0.000262     -0.197700
      3.81307      6.35512      1.27102        -0.000262      0.000262     -0.197700
      3.81307      8.89717      1.27102         0.013616     -0.005481     -0.202256
      6.35512      1.27102      1.27102        -0.013616      0.005480     -0.202256
      6.35512      3.81307      1.27102         0.000262     -0.000262     -0.197700
      6.35512      6.35512      1.27102         0.000262      0.000262     -0.197700
      6.35512      8.89717      1.27102        -0.013617     -0.005481     -0.202256
      8.89717      1.27102      1.27102         0.010873     -0.010873     -0.198633
      8.89717      3.81307      1.27102        -0.005481      0.013616     -0.202256
      8.89717      6.35512      1.27102        -0.005481     -0.013617     -0.202256
      8.89717      8.89717      1.27102         0.010873      0.010873     -0.198633
      0.00000      0.00000      3.06852        -0.000000     -0.000000      0.208954
      0.00000      2.54205      3.06852        -0.000000      0.007651      0.213429
      0.00000      5.08410      3.06852        -0.000001     -0.000000      0.201405
      0.00000      7.62615      3.06852        -0.000000     -0.007652      0.213429
      2.54205      0.00000      3.06852         0.007651     -0.000000      0.213429
      2.54205      2.54205      3.06852        -0.001770     -0.001770      0.213790
      2.54205      5.08410      3.06852        -0.013804      0.000001      0.181672
      2.54205      7.62615      3.06852        -0.001770      0.001771      0.213791
      5.08410      0.00000      3.06852        -0.000000     -0.000001      0.201405
      5.08410      2.54205      3.06852         0.000001     -0.013804      0.181672
      5.08410      5.08410      3.06852         0.000001      0.000001      0.132628
      5.08410      7.62615      3.06852         0.000001      0.013807      0.181672
      7.62615      0.00000      3.06852        -0.007652     -0.000000      0.213429
      7.62615      2.54205      3.06852         0.001771     -0.001769      0.213791
      7.62615      5.08410      3.06852         0.013806      0.000001      0.181672
      7.62615      7.62615      3.06852         0.001770      0.001770      0.213792
      1.27127      1.27127      4.97993        -0.000518     -0.000519      0.001455
      1.27292      3.81335      4.98147         0.001559      0.000100     -0.000548
      1.27292      6.35484      4.98147         0.001559     -0.000100     -0.000549
      1.27127      8.89693      4.97993        -0.000517      0.000519      0.001456
      3.81335      1.27292      4.98147         0.000099      0.001559     -0.000548
      3.81583      3.81583      4.96790        -0.004827     -0.004827      0.000861
      3.81583      6.35237      4.96790        -0.004828      0.004829      0.000870
      3.81335      8.89528      4.98147         0.000100     -0.001560     -0.000554
      6.35484      1.27292      4.98147        -0.000099      0.001559     -0.000549
      6.35237      3.81583      4.96790         0.004829     -0.004828      0.000869
      6.35237      6.35237      4.96790         0.004829      0.004829      0.000878
      6.35484      8.89528      4.98147        -0.000100     -0.001560     -0.000555
      8.89693      1.27127      4.97993         0.000518     -0.000518      0.001456
      8.89528      3.81335      4.98147        -0.001560      0.000101     -0.000554
      8.89528      6.35484      4.98147        -0.001561     -0.000102     -0.000555
      8.89693      8.89693      4.97993         0.000518      0.000518      0.001457
     10.16820     10.16820      6.83618         0.000000      0.000000      0.004715
     10.16820      2.53993      6.82943        -0.000001      0.000990      0.003457
      0.00000      5.08410      6.82881        -0.000000     -0.000000      0.002244
     -0.00000      7.62826      6.82943         0.000000     -0.000990      0.003457
      2.53993     10.16820      6.82943         0.000990     -0.000001      0.003455
      2.54660      2.54660      6.83059        -0.000134     -0.000135     -0.000556
      2.57787      5.08410      6.82712        -0.003558     -0.000000      0.000817
      2.54660      7.62159      6.83059        -0.000134      0.000134     -0.000556
      5.08410      0.00000      6.82881        -0.000000     -0.000000      0.002245
      5.08410      2.57787      6.82712        -0.000000     -0.003558      0.000819
      5.08410      7.59033      6.82713        -0.000000      0.003556      0.000824
      7.62826     -0.00000      6.82943        -0.000990      0.000000      0.003455
      7.62159      2.54660      6.83059         0.000134     -0.000134     -0.000556
      7.59033      5.08410      6.82713         0.003556     -0.000001      0.000823
      7.62159      7.62159      6.83059         0.000134      0.000135     -0.000555
      5.08410      5.08410      6.70947        -0.000001     -0.000001     -0.005557
 -----------------------------------------------------------------------------------
    total drift:                                0.000002      0.000004      0.129297


--------------------------------------------------------------------------------------------------------



  FREE ENERGIE OF THE ION-ELECTRON SYSTEM (eV)
  ---------------------------------------------------
  free  energy   TOTEN  =      -193.73329495 eV

  energy  without entropy=     -193.73148868  energy(sigma->0) =     -193.73269286

 d Force = 0.9749588E-04[ 0.483E-04, 0.147E-03]  d Energy = 0.8486499E-04 0.126E-04
 d Force = 0.1664394E+02[ 0.166E+02, 0.166E+02]  d Ewald  = 0.1664395E+02-0.142E-04


--------------------------------------------------------------------------------------------------------


    POTLOK:  cpu time      0.1580: real time      0.1589


--------------------------------------------------------------------------------------------------------


 stress matrix after NEB project (eV)
     -0.68631      0.00000     -0.00001
      0.00000     -0.68631     -0.00002
     -0.00001     -0.00002      2.29666
  FORCES: max atom, RMS     0.006886    0.002474
  FORCE total and by dimension    0.019792    0.005557
  Stress total and by dimension    2.493325    2.296657
 OPT: skip step - force has converged


--------------------------------------------------------------------------------------------------------


  
 reached required accuracy - stopping structural energy minimisation
     LOOP+:  cpu time    277.5859: real time    212.0065
    4ORBIT:  cpu time      0.0000: real time      0.0000



 total charge

# of ion       s       p       d       tot
------------------------------------------
    1        0.441   0.261   9.209   9.911
    2        0.441   0.261   9.209   9.911
    3        0.441   0.261   9.209   9.911
    4        0.441   0.261   9.209   9.911
    5        0.441   0.261   9.209   9.911
    6        0.440   0.262   9.209   9.910
    7        0.440   0.262   9.209   9.910
    8        0.441   0.261   9.209   9.911
    9        0.441   0.261   9.209   9.911
   10        0.440   0.262   9.209   9.910
   11        0.440   0.262   9.209   9.910
   12        0.441   0.261   9.209   9.911
   13        0.441   0.261   9.209   9.911
   14        0.441   0.261   9.209   9.911
   15        0.441   0.261   9.209   9.911
   16        0.441   0.261   9.209   9.911
   17        0.430   0.371   9.168   9.969
   18        0.431   0.368   9.172   9.971
   19        0.432   0.368   9.170   9.970
   20        0.431   0.368   9.172   9.971
   21        0.431   0.368   9.172   9.971
   22        0.434   0.370   9.168   9.972
   23        0.433   0.368   9.172   9.973
   24        0.434   0.370   9.168   9.972
   25        0.432   0.368   9.170   9.970
   26        0.433   0.368   9.172   9.973
   27        0.429   0.367   9.178   9.974
   28        0.433   0.368   9.172   9.973
   29        0.431   0.368   9.172   9.971
   30        0.434   0.370   9.168   9.972
   31        0.433   0.368   9.172   9.973
   32        0.434   0.370   9.168   9.972
   33        0.429   0.354   9.174   9.957
   34        0.428   0.354   9.174   9.956
   35        0.428   0.354   9.174   9.956
   36        0.429   0.354   9.174   9.957
   37        0.428   0.354   9.174   9.956
   38        0.438   0.371   9.164   9.973
   39        0.438   0.371   9.164   9.973
   40        0.428   0.354   9.174   9.956
   41        0.428   0.354   9.174   9.956
   42        0.438   0.371   9.164   9.973
   43        0.438   0.371   9.164   9.973
   44        0.428   0.354   9.174   9.956
   45        0.429   0.354   9.174   9.957
   46        0.428   0.354   9.174   9.956
   47        0.428   0.354   9.174   9.956
   48        0.429   0.354   9.174   9.957
   49        0.439   0.250   9.206   9.894
   50        0.437   0.251   9.205   9.893
   51        0.432   0.248   9.206   9.886
   52        0.437   0.251   9.205   9.893
   53        0.437   0.251   9.205   9.893
   54        0.430   0.251   9.209   9.891
   55        0.442   0.257   9.198   9.897
   56        0.430   0.251   9.209   9.891
   57        0.432   0.248   9.206   9.886
   58        0.442   0.257   9.198   9.897
   59        0.442   0.257   9.198   9.897
   60        0.437   0.251   9.205   9.893
   61        0.430   0.251   9.209   9.891
   62        0.442   0.257   9.198   9.897
   63        0.430   0.251   9.209   9.891
   64        0.415   0.275   7.375   8.065
--------------------------------------------------
tot         27.813  19.871 586.258 633.942



 magnetization (x)

# of ion       s       p       d       tot
------------------------------------------
    1        0.000  -0.000  -0.000  -0.000
    2        0.000   0.000   0.000   0.000
    3        0.000   0.000   0.000   0.000
    4        0.000  -0.000  -0.000  -0.000
    5        0.000   0.000   0.000   0.000
    6        0.000   0.000   0.000   0.000
    7        0.000   0.000   0.000   0.000
    8        0.000   0.000   0.000   0.000
    9        0.000   0.000   0.000   0.000
   10        0.000   0.000   0.000   0.000
   11        0.000   0.000   0.000   0.000
   12        0.000   0.000   0.000   0.000
   13        0.000  -0.000  -0.000  -0.000
   14        0.000   0.000   0.000   0.000
   15        0.000   0.000   0.000   0.000
   16        0.000  -0.000  -0.000  -0.000
   17       -0.000   0.000  -0.000  -0.000
   18       -0.000  -0.000   0.000   0.000
   19       -0.000  -0.000   0.000   0.000
   20       -0.000  -0.000   0.000   0.000
   21       -0.000  -0.000   0.000   0.000
   22        0.000  -0.000  -0.000  -0.000
   23       -0.000  -0.000  -0.000  -0.000
   24        0.000  -0.000  -0.000  -0.000
   25       -0.000  -0.000   0.000   0.000
   26       -0.000  -0.000  -0.000  -0.000
   27        0.000  -0.000   0.000   0.000
   28       -0.000  -0.000  -0.000  -0.000
   29       -0.000  -0.000   0.000   0.000
   30        0.000  -0.000  -0.000  -0.000
   31       -0.000  -0.000  -0.000  -0.000
   32        0.000  -0.000  -0.000  -0.000
   33        0.000   0.000   0.000   0.000
   34        0.000  -0.000   0.000   0.000
   35        0.000  -0.000   0.000   0.000
   36        0.000   0.000   0.000   0.000
   37        0.000  -0.000   0.000   0.000
   38        0.000   0.000  -0.000  -0.000
   39        0.000   0.000  -0.000  -0.000
   40        0.000  -0.000   0.000   0.000
   41        0.000  -0.000   0.000   0.000
   42        0.000   0.000  -0.000  -0.000
   43        0.000   0.000  -0.000  -0.000
   44        0.000  -0.000   0.000   0.000
   45        0.000   0.000   0.000   0.000
   46        0.000  -0.000   0.000   0.000
   47        0.000  -0.000   0.000   0.000
   48        0.000   0.000   0.000   0.000
   49        0.000   0.000  -0.000  -0.000
   50        0.000   0.000   0.000   0.000
   51        0.000   0.000  -0.000   0.000
   52        0.000   0.000   0.000   0.000
   53        0.000   0.000   0.000   0.000
   54        0.000   0.000   0.000   0.000
   55        0.000   0.000  -0.000  -0.000
   56        0.000   0.000   0.000   0.000
   57        0.000   0.000  -0.000   0.000
   58        0.000   0.000  -0.000  -0.000
   59        0.000   0.000  -0.000  -0.000
   60        0.000   0.000   0.000   0.000
   61        0.000   0.000   0.000   0.000
   62        0.000   0.000  -0.000  -0.000
   63        0.000   0.000   0.000   0.000
   64       -0.000  -0.000  -0.001  -0.001
--------------------------------------------------
tot          0.000   0.000  -0.001  -0.001


 total amount of memory used by VASP MPI-rank0   170845. kBytes
=======================================================================

   base      :      30000. kBytes
   nonlr-proj:      20405. kBytes
   fftplans  :       3922. kBytes
   grid      :      34349. kBytes
   one-center:       1990. kBytes
   wavefun   :      80179. kBytes

  
  
 General timing and accounting informations for this job:
 ========================================================
  
                  Total CPU time used (sec):     2764.136
                            User time (sec):     2720.397
                          System time (sec):       43.739
                         Elapsed time (sec):     2109.512
  
                   Maximum memory used (kb):      443672.
                   Average memory used (kb):          N/A
  
                          Minor page faults:       866381
                          Major page faults:          210
                 Voluntary context switches:        66499
