 vasp.6.3.2 27Jun22 (build Oct 18 2022 15:11:14) complex                         
 executed on             LinuxGNU date 2024.01.03  20:22:15
 running   16 mpi-ranks, with    1 threads/rank
 distrk:  each k-point on   16 cores,    1 groups
 distr:  one band on NCORE=   1 cores,   16 groups


--------------------------------------------------------------------------------------------------------


 INCAR:
   ISTART = 0
   SYSTEM = bulk fcc Ir
   EDIFFG = -0.01
   EDIFF = 1E-5
   ENCUT = 400
   NSW = 1000
   NELM = 1000
   GGA = RP
   IDIPOL = 3
   ISMEAR = 0
   SIGMA = 0.1
   ALGO = Normal
   LWAVE = .FALSE.
   LCHARG = .FALSE.
   IBRION = 2
   POTIM = 0.015

 POTCAR:    PAW_PBE Ti_sv 26Sep2005               
 POTCAR:    PAW_PBE N 08Apr2002                   
 POTCAR:    PAW_PBE Ti_sv 26Sep2005               
   VRHFIN =Ti: 3p4s3d                                                                               
   LEXCH  = PE                                                                                      
   EATOM  =  1588.0892 eV,  116.7213 Ry                                                             
                                                                                                    
   TITEL  = PAW_PBE Ti_sv 26Sep2005                                                                 
   LULTRA =        F    use ultrasoft PP ?                                                          
   IUNSCR =        1    unscreen: 0-lin 1-nonlin 2-no                                               
   RPACOR =    2.000    partial core radius                                                         
   POMASS =   47.880; ZVAL   =   12.000    mass and valenz                                          
   RCORE  =    2.300    outmost cutoff radius                                                       
   RWIGS  =    2.300; RWIGS  =    1.217    wigner-seitz radius (au A)                               
   ENMAX  =  274.610; ENMIN  =  205.957 eV                                                          
   ICORE  =        3    local potential                                                             
   LCOR   =        T    correct aug charges                                                         
   LPAW   =        T    paw PP                                                                      
   EAUG   =  482.848                                                                                
   RMAX   =    2.348    core radius for proj-oper                                                   
   RAUG   =    1.300    factor for augmentation sphere                                              
   RDEP   =    2.381    radius for radial grids                                                     
   RDEPT  =    1.930    core radius for aug-charge                                                  
                                                                                                    
   Atomic configuration                                                                             
    8 entries                                                                                       
     n  l   j            E        occ.                                                              
     1  0  0.50     -4865.3608   2.0000                                                             
     2  0  0.50      -533.1368   2.0000                                                             
     2  1  1.50      -440.5031   6.0000                                                             
     3  0  0.50       -59.3186   2.0000                                                             
     4  0  0.50        -3.7291   1.0000                                                             
     3  1  1.50       -35.7012   6.0000                                                             
     3  2  2.50        -1.9157   3.0000                                                             
     4  3  2.50        -1.3606   0.0000                                                             
   Description                                                                                      
     l       E           TYP  RCUT    TYP  RCUT                                                     
     0    -59.3185931     23  1.800                                                                 
     0     -3.7290822     23  2.300                                                                 
     1    -35.7012045     23  2.300                                                                 
     1     -1.3605826     23  2.300                                                                 
     2     -1.9156920     23  2.300                                                                 
     2     -0.0236318     23  2.300                                                                 
     3     -1.3605826     23  2.300                                                                 
  local pseudopotential read in
  partial core-charges read in
  partial kinetic energy density read in
  atomic valenz-charges read in
  non local Contribution for L=           0  read in
    real space projection operators read in
  non local Contribution for L=           0  read in
    real space projection operators read in
  non local Contribution for L=           1  read in
    real space projection operators read in
  non local Contribution for L=           1  read in
    real space projection operators read in
  non local Contribution for L=           2  read in
    real space projection operators read in
  non local Contribution for L=           2  read in
    real space projection operators read in
    PAW grid and wavefunctions read in

   number of l-projection  operators is LMAX  =           6
   number of lm-projection operators is LMMAX =          18

 POTCAR:    PAW_PBE N 08Apr2002                   
   VRHFIN =N: s2p3                                                                                  
   LEXCH  = PE                                                                                      
   EATOM  =   264.5486 eV,   19.4438 Ry                                                             
                                                                                                    
   TITEL  = PAW_PBE N 08Apr2002                                                                     
   LULTRA =        F    use ultrasoft PP ?                                                          
   IUNSCR =        1    unscreen: 0-lin 1-nonlin 2-no                                               
   RPACOR =    1.200    partial core radius                                                         
   POMASS =   14.001; ZVAL   =    5.000    mass and valenz                                          
   RCORE  =    1.500    outmost cutoff radius                                                       
   RWIGS  =    1.400; RWIGS  =    0.741    wigner-seitz radius (au A)                               
   ENMAX  =  400.000; ENMIN  =  300.000 eV                                                          
   ICORE  =        2    local potential                                                             
   LCOR   =        T    correct aug charges                                                         
   LPAW   =        T    paw PP                                                                      
   EAUG   =  627.112                                                                                
   DEXC   =    0.000                                                                                
   RMAX   =    1.529    core radius for proj-oper                                                   
   RAUG   =    1.300    factor for augmentation sphere                                              
   RDEP   =    1.514    radius for radial grids                                                     
   RDEPT  =    1.338    core radius for aug-charge                                                  
                                                                                                    
   Atomic configuration                                                                             
    4 entries                                                                                       
     n  l   j            E        occ.                                                              
     1  0  0.50      -384.7179   2.0000                                                             
     2  0  0.50       -18.5828   2.0000                                                             
     2  1  0.50        -7.0898   3.0000                                                             
     3  2  1.50        -6.8029   0.0000                                                             
   Description                                                                                      
     l       E           TYP  RCUT    TYP  RCUT                                                     
     0    -18.5828119     23  1.200                                                                 
     0    -13.5018863     23  1.200                                                                 
     1     -7.0897853     23  1.500                                                                 
     1      9.5240782     23  1.500                                                                 
     2     -6.8029130      7  1.500                                                                 
  local pseudopotential read in
  partial core-charges read in
  partial kinetic energy density read in
  atomic valenz-charges read in
  non local Contribution for L=           0  read in
    real space projection operators read in
  non local Contribution for L=           0  read in
    real space projection operators read in
  non local Contribution for L=           1  read in
    real space projection operators read in
  non local Contribution for L=           1  read in
    real space projection operators read in
    PAW grid and wavefunctions read in

   number of l-projection  operators is LMAX  =           4
   number of lm-projection operators is LMMAX =           8

 -----------------------------------------------------------------------------
|                                                                             |
|               ----> ADVICE to this user running VASP <----                  |
|                                                                             |
|     You have a (more or less) 'large supercell' and for larger cells it     |
|     might be more efficient to use real-space projection operators.         |
|     Therefore, try LREAL= Auto in the INCAR file.                           |
|     Mind: For very accurate calculation, you might also keep the            |
|     reciprocal projection scheme (i.e. LREAL=.FALSE.).                      |
|                                                                             |
 -----------------------------------------------------------------------------

 -----------------------------------------------------------------------------
|                                                                             |
|               ----> ADVICE to this user running VASP <----                  |
|                                                                             |
|     You enforced a specific xc type in the INCAR file but a different       |
|     type was found in the POTCAR file.                                      |
|     I HOPE YOU KNOW WHAT YOU ARE DOING!                                     |
|                                                                             |
 -----------------------------------------------------------------------------

  PAW_PBE Ti_sv 26Sep2005               :
 energy of atom  1       EATOM=-1588.0892
 kinetic energy error for atom=    0.0139 (will be added to EATOM!!)
  PAW_PBE N 08Apr2002                   :
 energy of atom  2       EATOM= -264.5486
 kinetic energy error for atom=    0.0736 (will be added to EATOM!!)


 POSCAR: Ti N
  positions in direct lattice
  No initial velocities read in
 exchange correlation table for  LEXCH =        9
   RHO(1)=    0.500       N(1)  =     2000
   RHO(2)=  100.500       N(2)  =     4000



--------------------------------------------------------------------------------------------------------


 ion  position               nearest neighbor table
   1  0.125  0.875  0.426-  40 2.14  28 2.14  37 2.14  39 2.14  38 2.14
   2  0.625  0.875  0.426-  40 2.14  39 2.14  36 2.14  37 2.14  38 2.14
   3  0.625  0.375  0.426-  37 2.14  40 2.14  39 2.14  38 2.14  32 2.14
   4  0.125  0.375  0.426-  37 2.14  40 2.14  24 2.14  39 2.14  38 2.14
   5  0.125  0.375  0.047-  21 2.14  25 2.14  22 2.14  29 2.14  33 2.14
   6  0.375  0.125  0.142-  22 2.14  30 2.14  23 2.14  21 2.14  26 2.14  34 2.14
   7  0.125  0.375  0.236-  24 2.14  23 2.14  27 2.14  22 2.14  31 2.14  35 2.14
   8  0.375  0.125  0.331-  23 2.14  24 2.14  32 2.14  37 2.14  36 2.14  28 2.14
   9  0.125  0.875  0.047-  25 2.14  26 2.14  21 2.14  33 2.14  29 2.14
  10  0.375  0.625  0.142-  22 2.14  30 2.14  26 2.14  34 2.14  25 2.14  27 2.14
  11  0.125  0.875  0.236-  28 2.14  27 2.14  26 2.14  23 2.14  35 2.14  31 2.14
  12  0.375  0.625  0.331-  27 2.14  24 2.14  32 2.14  28 2.14  36 2.14  40 2.14
  13  0.625  0.375  0.047-  21 2.14  25 2.14  29 2.14  33 2.14  30 2.14
  14  0.875  0.125  0.142-  30 2.14  29 2.14  31 2.14  22 2.14  34 2.14  26 2.14
  15  0.625  0.375  0.236-  32 2.14  27 2.14  23 2.14  31 2.14  35 2.14  30 2.14
  16  0.875  0.125  0.331-  31 2.14  32 2.14  38 2.14  24 2.14  36 2.14  28 2.14
  17  0.625  0.875  0.047-  25 2.14  33 2.14  34 2.14  21 2.14  29 2.14
  18  0.875  0.625  0.142-  30 2.14  34 2.14  33 2.14  35 2.14  22 2.14  26 2.14
  19  0.625  0.875  0.236-  36 2.14  27 2.14  35 2.14  34 2.14  23 2.14  31 2.14
  20  0.875  0.625  0.331-  35 2.14  32 2.14  36 2.14  39 2.14  24 2.14  28 2.14
  21  0.375  0.125  0.047-   5 2.14  13 2.14   6 2.14   9 2.14  17 2.14
  22  0.125  0.375  0.142-   6 2.14  10 2.14   7 2.14   5 2.14  14 2.14  18 2.14
  23  0.375  0.125  0.236-   8 2.14   7 2.14  15 2.14   6 2.14  11 2.14  19 2.14
  24  0.125  0.375  0.331-   7 2.14   8 2.14  12 2.14   4 2.14  16 2.14  20 2.14
  25  0.375  0.625  0.047-   5 2.14  13 2.14   9 2.14  17 2.14  10 2.14
  26  0.125  0.875  0.142-  10 2.14   9 2.14  11 2.14   6 2.14  18 2.14  14 2.14
  27  0.375  0.625  0.236-  12 2.14   7 2.14  15 2.14  11 2.14  19 2.14  10 2.14
  28  0.125  0.875  0.331-  11 2.14  12 2.14   1 2.14   8 2.14  20 2.14  16 2.14
  29  0.875  0.125  0.047-  13 2.14  14 2.14   5 2.14  17 2.14   9 2.14
  30  0.625  0.375  0.142-   6 2.14  10 2.14  14 2.14  18 2.14  15 2.14  13 2.14
  31  0.875  0.125  0.236-  16 2.14  15 2.14  14 2.14   7 2.14  19 2.14  11 2.14
  32  0.625  0.375  0.331-  15 2.14  12 2.14   8 2.14  16 2.14  20 2.14   3 2.14
  33  0.875  0.625  0.047-  13 2.14  17 2.14  18 2.14   5 2.14   9 2.14
  34  0.625  0.875  0.142-  10 2.14  18 2.14  17 2.14  19 2.14   6 2.14  14 2.14
  35  0.875  0.625  0.236-  20 2.14  15 2.14  19 2.14  18 2.14   7 2.14  11 2.14
  36  0.625  0.875  0.331-  19 2.14  12 2.14  20 2.14   2 2.14   8 2.14  16 2.14
  37  0.375  0.125  0.426-   3 2.14   4 2.14   8 2.14   2 2.14   1 2.14
  38  0.875  0.125  0.426-   3 2.14  16 2.14   4 2.14   2 2.14   1 2.14
  39  0.875  0.625  0.426-   3 2.14   2 2.14  20 2.14   4 2.14   1 2.14
  40  0.375  0.625  0.426-   3 2.14   4 2.14   1 2.14   2 2.14  12 2.14

  LATTYP: Found a simple tetragonal cell.
 ALAT       =     6.0528340470
 C/A-ratio  =     3.7387444996
  
  Lattice vectors:
  
 A1 = (   6.0528340470,   0.0000000000,   0.0000000000)
 A2 = (   0.0000000000,   6.0528340470,   0.0000000000)
 A3 = (   0.0000000000,   0.0000000000,  22.6300000000)


Analysis of symmetry for initial positions (statically):
=====================================================================
 Subroutine PRICEL returns following result:
 
  LATTYP: Found a simple tetragonal cell.
 ALAT       =     3.0264170235
 C/A-ratio  =     7.4774889992
  
  Lattice vectors:
  
 A1 = (   3.0264170235,   0.0000000000,   0.0000000000)
 A2 = (   0.0000000000,   3.0264170235,   0.0000000000)
 A3 = (   0.0000000000,   0.0000000000,  22.6300000000)
 
   4 primitive cells build up your supercell.
 

 Routine SETGRP: Setting up the symmetry group for a 
 simple tetragonal supercell.


 Subroutine GETGRP returns: Found 16 space group operations
 (whereof  2 operations were pure point group operations)
 out of a pool of 16 trial point group operations.


The static configuration has the point symmetry C_1h.
 The point group associated with its full space group is D_4h.


Analysis of symmetry for dynamics (positions and initial velocities):
=====================================================================
 Subroutine PRICEL returns following result:
 
  LATTYP: Found a simple tetragonal cell.
 ALAT       =     3.0264170235
 C/A-ratio  =     7.4774889992
  
  Lattice vectors:
  
 A1 = (   3.0264170235,   0.0000000000,   0.0000000000)
 A2 = (   0.0000000000,   3.0264170235,   0.0000000000)
 A3 = (   0.0000000000,   0.0000000000,  22.6300000000)
 
   4 primitive cells build up your supercell.
 

 Routine SETGRP: Setting up the symmetry group for a 
 simple tetragonal supercell.


 Subroutine GETGRP returns: Found 16 space group operations
 (whereof  2 operations were pure point group operations)
 out of a pool of 16 trial point group operations.


The dynamic configuration has the point symmetry C_1h.
 The point group associated with its full space group is D_4h.


Analysis of constrained symmetry for selective dynamics:
=====================================================================
 Subroutine PRICEL returns following result:
 
  LATTYP: Found a simple tetragonal cell.
 ALAT       =     3.0264170235
 C/A-ratio  =     7.4774889992
  
  Lattice vectors:
  
 A1 = (   3.0264170235,   0.0000000000,   0.0000000000)
 A2 = (   0.0000000000,   3.0264170235,   0.0000000000)
 A3 = (   0.0000000000,   0.0000000000,  22.6300000000)
 
   4 primitive cells build up your supercell.
 

 Routine SETGRP: Setting up the symmetry group for a 
 simple tetragonal supercell.


 Subroutine GETGRP returns: Found  8 space group operations
 (whereof  2 operations were pure point group operations)
 out of a pool of 16 trial point group operations.


The constrained configuration has the point symmetry C_1h.
 The point group associated with its full space group is C_4v.


 Subroutine INISYM returns: Found  8 space group operations
 (whereof  2 operations are pure point group operations),
 and found     4 'primitive' translations


----------------------------------------------------------------------------------------

                                     Primitive cell                                     

  volume of cell :     207.2727

  direct lattice vectors                    reciprocal lattice vectors
     3.026417023  0.000000000  0.000000000     0.330423730  0.000000000  0.000000000
     0.000000000  3.026417024  0.000000000     0.000000000  0.330423730  0.000000000
     0.000000000  0.000000000 22.630000000     0.000000000  0.000000000  0.044189129

  length of vectors
     3.026417023  3.026417024 22.630000000     0.330423730  0.330423730  0.044189129

  position of ions in fractional coordinates (direct lattice)
     0.250000000  0.750000000  0.425541317
     0.250000000  0.750000000  0.047282369
     0.750000000  0.250000000  0.141847106
     0.250000000  0.750000000  0.236411843
     0.750000000  0.250000000  0.330976580
     0.750000000  0.250000000  0.047282369
     0.250000000  0.750000000  0.141847106
     0.750000000  0.250000000  0.236411843
     0.250000000  0.750000000  0.330976580
     0.750000000  0.250000000  0.425541317

  ion indices of the primitive-cell ions
   primitive index   ion index
                 1           1
                 2           9
                 3          10
                 4          11
                 5          12
                 6          25
                 7          26
                 8          27
                 9          28
                10          40

----------------------------------------------------------------------------------------



 KPOINTS: Automatic Mesh                          

Automatic generation of k-mesh.
 Grid dimensions read from file:
 generate k-points for:    4    4    1

 Generating k-lattice:

  Cartesian coordinates                     Fractional coordinates (reciprocal lattice)
     0.041302966  0.000000000  0.000000000     0.250000000  0.000000000  0.000000000
     0.000000000  0.041302966  0.000000000     0.000000000  0.250000000  0.000000000
     0.000000000  0.000000000  0.044189129     0.000000000  0.000000000  1.000000000

  Length of vectors
     0.041302966  0.041302966  0.044189129

  Shift w.r.t. Gamma in fractional coordinates (k-lattice)
     0.500000000  0.500000000  0.000000000

 
 Subroutine IBZKPT returns following result:
 ===========================================
 
 Found      3 irreducible k-points:
 
 Following reciprocal coordinates:
            Coordinates               Weight
  0.125000  0.125000  0.000000      4.000000
  0.375000  0.125000  0.000000      8.000000
  0.375000  0.375000  0.000000      4.000000
 
 Following cartesian coordinates:
            Coordinates               Weight
  0.125000  0.125000  0.000000      4.000000
  0.375000  0.125000  0.000000      8.000000
  0.375000  0.375000  0.000000      4.000000
 


--------------------------------------------------------------------------------------------------------




 Dimension of arrays:
   k-points           NKPTS =      3   k-points in BZ     NKDIM =      3   number of bands    NBANDS=    208
   number of dos      NEDOS =    301   number of ions     NIONS =     40
   non local maximal  LDIM  =      6   non local SUM 2l+1 LMDIM =     18
   total plane-waves  NPLWV = 100800
   max r-space proj   IRMAX =      1   max aug-charges    IRDMAX=   4919
   dimension x,y,z NGX =    30 NGY =   30 NGZ =  112
   dimension x,y,z NGXF=    60 NGYF=   60 NGZF=  224
   support grid    NGXF=    60 NGYF=   60 NGZF=  224
   ions per type =              20  20
   NGX,Y,Z   is equivalent  to a cutoff of   8.24,  8.24,  8.23 a.u.
   NGXF,Y,Z  is equivalent  to a cutoff of  16.48, 16.48, 16.46 a.u.

 SYSTEM =  bulk fcc Ir                             
 POSCAR =  Ti N                                    

 Startparameter for this run:
   NWRITE =      2    write-flag & timer
   PREC   = normal    normal or accurate (medium, high low for compatibility)
   ISTART =      0    job   : 0-new  1-cont  2-samecut
   ICHARG =      2    charge: 1-file 2-atom 10-const
   ISPIN  =      1    spin polarized calculation?
   LNONCOLLINEAR =      F non collinear calculations
   LSORBIT =      F    spin-orbit coupling
   INIWAV =      1    electr: 0-lowe 1-rand  2-diag
   LASPH  =      F    aspherical Exc in radial PAW
 Electronic Relaxation 1
   ENCUT  =  400.0 eV  29.40 Ry    5.42 a.u.   9.87  9.87 36.90*2*pi/ulx,y,z
   ENINI  =  400.0     initial cutoff
   ENAUG  =  627.1 eV  augmentation charge cutoff
   NELM   =   1000;   NELMIN=  2; NELMDL= -5     # of ELM steps 
   EDIFF  = 0.1E-04   stopping-criterion for ELM
   LREAL  =      F    real-space projection
   NLSPLINE    = F    spline interpolate recip. space projectors
   LCOMPAT=      F    compatible to vasp.4.4
   GGA_COMPAT  = T    GGA compatible to vasp.4.4-vasp.4.6
   LMAXPAW     = -100 max onsite density
   LMAXMIX     =    2 max onsite mixed and CHGCAR
   VOSKOWN=      0    Vosko Wilk Nusair interpolation
   ROPT   =    0.00000   0.00000
 Ionic relaxation
   EDIFFG = -.1E-01   stopping-criterion for IOM
   NSW    =   1000    number of steps for IOM
   NBLOCK =      1;   KBLOCK =   1000    inner block; outer block 
   IBRION =      2    ionic relax: 0-MD 1-quasi-New 2-CG
   NFREE  =      1    steps in history (QN), initial steepest desc. (CG)
   ISIF   =      2    stress and relaxation
   IWAVPR =     11    prediction:  0-non 1-charg 2-wave 3-comb
   ISYM   =      2    0-nonsym 1-usesym 2-fastsym
   LCORR  =      T    Harris-Foulkes like correction to forces

   POTIM  = 0.0150    time-step for ionic-motion
   TEIN   =    0.0    initial temperature
   TEBEG  =    0.0;   TEEND  =   0.0 temperature during run
   SMASS  =  -3.00    Nose mass-parameter (am)
   estimated Nose-frequenzy (Omega)   =  0.10E-29 period in steps = 0.42E+48 mass=  -0.837E-27a.u.
   SCALEE = 1.0000    scale energy and forces
   NPACO  =    256;   APACO  = 10.0  distance and # of slots for P.C.
   PSTRESS=    0.0 pullay stress

  Mass of Ions in am
   POMASS =  47.88 14.00
  Ionic Valenz
   ZVAL   =  12.00  5.00
  Atomic Wigner-Seitz radii
   RWIGS  =  -1.00 -1.00
  virtual crystal weights 
   VCA    =   1.00  1.00
   NELECT =     340.0000    total number of electrons
   NUPDOWN=      -1.0000    fix difference up-down

 DOS related values:
   EMIN   =  10.00;   EMAX   =-10.00  energy-range for DOS
   EFERMI =   0.00
   ISMEAR =     0;   SIGMA  =   0.10  broadening in eV -4-tet -1-fermi 0-gaus

 Electronic relaxation 2 (details)
   IALGO  =     38    algorithm
   LDIAG  =      T    sub-space diagonalisation (order eigenvalues)
   LSUBROT=      F    optimize rotation matrix (better conditioning)
   TURBO    =      0    0=normal 1=particle mesh
   IRESTART =      0    0=no restart 2=restart with 2 vectors
   NREBOOT  =      0    no. of reboots
   NMIN     =      0    reboot dimension
   EREF     =   0.00    reference energy to select bands
   IMIX   =      4    mixing-type and parameters
     AMIX     =   0.40;   BMIX     =  1.00
     AMIX_MAG =   1.60;   BMIX_MAG =  1.00
     AMIN     =   0.10
     WC   =   100.;   INIMIX=   1;  MIXPRE=   1;  MAXMIX= -45

 Intra band minimization:
   WEIMIN = 0.0010     energy-eigenvalue tresh-hold
   EBREAK =  0.12E-07  absolut break condition
   DEPER  =   0.30     relativ break condition  

   TIME   =   0.40     timestep for ELM

  volume/ion in A,a.u.               =      20.73       139.87
  Fermi-wavevector in a.u.,A,eV,Ry     =   1.216281  2.298437 20.127622  1.479338
  Thomas-Fermi vector in A             =   2.351640

 Write flags
   LWAVE        =      F    write WAVECAR
   LDOWNSAMPLE  =      F    k-point downsampling of WAVECAR
   LCHARG       =      F    write CHGCAR
   LVTOT        =      F    write LOCPOT, total local potential
   LVHAR        =      F    write LOCPOT, Hartree potential only
   LELF         =      F    write electronic localiz. function (ELF)
   LORBIT       =      0    0 simple, 1 ext, 2 COOP (PROOUT), +10 PAW based schemes


 Dipole corrections
   LMONO  =      F    monopole corrections only (constant potential shift)
   LDIPOL =      F    correct potential (dipole corrections)
   IDIPOL =      3    1-x, 2-y, 3-z, 4-all directions 
   EPSILON=  1.0000000 bulk dielectric constant

 Exchange correlation treatment:
   GGA     =    RP    GGA type
   LEXCH   =     9    internal setting for exchange type
   LIBXC   =     F    Libxc                    
   VOSKOWN =     0    Vosko Wilk Nusair interpolation
   LHFCALC =     F    Hartree Fock is set to
   LHFONE  =     F    Hartree Fock one center treatment
   AEXX    =    0.0000 exact exchange contribution

 Linear response parameters
   LEPSILON=     F    determine dielectric tensor
   LRPA    =     F    only Hartree local field effects (RPA)
   LNABLA  =     F    use nabla operator in PAW spheres
   LVEL    =     F    velocity operator in full k-point grid
   CSHIFT  =0.1000    complex shift for real part using Kramers Kronig
   OMEGAMAX=  -1.0    maximum frequency
   DEG_THRESHOLD= 0.2000000E-02 threshold for treating states as degnerate
   RTIME   =   -0.100 relaxation time in fs
  (WPLASMAI=    0.000 imaginary part of plasma frequency in eV, 0.658/RTIME)
   DFIELD  = 0.0000000 0.0000000 0.0000000 field for delta impulse in time

  Optional k-point grid parameters
   LKPOINTS_OPT  =     F    use optional k-point grid
   KPOINTS_OPT_MODE=     1    mode for optional k-point grid

 Orbital magnetization related:
   ORBITALMAG=     F  switch on orbital magnetization
   LCHIMAG   =     F  perturbation theory with respect to B field
   DQ        =  0.001000  dq finite difference perturbation B field
   LLRAUG    =     F  two centre corrections for induced B field



--------------------------------------------------------------------------------------------------------


 conjugate gradient relaxation of ions
   using selective dynamics as specified on POSCAR
 charge density and potential will be updated during run
 non-spin polarized calculation
 Variant of blocked Davidson
 Davidson routine will perform the subspace rotation
 perform sub-space diagonalisation
    after iterative eigenvector-optimisation
 modified Broyden-mixing scheme, WC =      100.0
 initial mixing is a Kerker type mixing with AMIX =  0.4000 and BMIX =      1.0000
 Hartree-type preconditioning will be used
 using additional bands           38
 reciprocal scheme for non local part
 use partial core corrections
 calculate Harris-corrections to forces   (improved forces if not selfconsistent)
 use gradient corrections 
 use of overlap-Matrix (Vanderbilt PP)
 Gauss-broadening in eV      SIGMA  =   0.10


--------------------------------------------------------------------------------------------------------


  energy-cutoff  :      400.00
  volume of cell :      829.09
      direct lattice vectors                 reciprocal lattice vectors
     6.052834047  0.000000000  0.000000000     0.165211865  0.000000000  0.000000000
     0.000000000  6.052834047  0.000000000     0.000000000  0.165211865  0.000000000
     0.000000000  0.000000000 22.630000000     0.000000000  0.000000000  0.044189129

  length of vectors
     6.052834047  6.052834047 22.630000000     0.165211865  0.165211865  0.044189129



 k-points in units of 2pi/SCALE and weight: Automatic Mesh                          
   0.12500000  0.12500000  0.00000000       0.250
   0.37500000  0.12500000  0.00000000       0.500
   0.37500000  0.37500000  0.00000000       0.250

 k-points in reciprocal lattice and weights: Automatic Mesh                          
   0.12500000  0.12500000  0.00000000       0.250
   0.37500000  0.12500000  0.00000000       0.500
   0.37500000  0.37500000  0.00000000       0.250

 position of ions in fractional coordinates (direct lattice) 
   0.12500000  0.87500000  0.42554132
   0.62500000  0.87500000  0.42554132
   0.62500000  0.37500000  0.42554132
   0.12500000  0.37500000  0.42554132
   0.12500000  0.37500000  0.04728237
   0.37500000  0.12500000  0.14184711
   0.12500000  0.37500000  0.23641184
   0.37500000  0.12500000  0.33097658
   0.12500000  0.87500000  0.04728237
   0.37500000  0.62500000  0.14184711
   0.12500000  0.87500000  0.23641184
   0.37500000  0.62500000  0.33097658
   0.62500000  0.37500000  0.04728237
   0.87500000  0.12500000  0.14184711
   0.62500000  0.37500000  0.23641184
   0.87500000  0.12500000  0.33097658
   0.62500000  0.87500000  0.04728237
   0.87500000  0.62500000  0.14184711
   0.62500000  0.87500000  0.23641184
   0.87500000  0.62500000  0.33097658
   0.37500000  0.12500000  0.04728237
   0.12500000  0.37500000  0.14184711
   0.37500000  0.12500000  0.23641184
   0.12500000  0.37500000  0.33097658
   0.37500000  0.62500000  0.04728237
   0.12500000  0.87500000  0.14184711
   0.37500000  0.62500000  0.23641184
   0.12500000  0.87500000  0.33097658
   0.87500000  0.12500000  0.04728237
   0.62500000  0.37500000  0.14184711
   0.87500000  0.12500000  0.23641184
   0.62500000  0.37500000  0.33097658
   0.87500000  0.62500000  0.04728237
   0.62500000  0.87500000  0.14184711
   0.87500000  0.62500000  0.23641184
   0.62500000  0.87500000  0.33097658
   0.37500000  0.12500000  0.42554132
   0.87500000  0.12500000  0.42554132
   0.87500000  0.62500000  0.42554132
   0.37500000  0.62500000  0.42554132

 position of ions in cartesian coordinates  (Angst):
   0.75660426  5.29622979  9.63000000
   3.78302128  5.29622979  9.63000000
   3.78302128  2.26981277  9.63000000
   0.75660426  2.26981277  9.63000000
   0.75660426  2.26981277  1.07000000
   2.26981277  0.75660426  3.21000000
   0.75660426  2.26981277  5.35000000
   2.26981277  0.75660426  7.49000000
   0.75660426  5.29622979  1.07000000
   2.26981277  3.78302128  3.21000000
   0.75660426  5.29622979  5.35000000
   2.26981277  3.78302128  7.49000000
   3.78302128  2.26981277  1.07000000
   5.29622979  0.75660426  3.21000000
   3.78302128  2.26981277  5.35000000
   5.29622979  0.75660426  7.49000000
   3.78302128  5.29622979  1.07000000
   5.29622979  3.78302128  3.21000000
   3.78302128  5.29622979  5.35000000
   5.29622979  3.78302128  7.49000000
   2.26981277  0.75660426  1.07000000
   0.75660426  2.26981277  3.21000000
   2.26981277  0.75660426  5.35000000
   0.75660426  2.26981277  7.49000000
   2.26981277  3.78302128  1.07000000
   0.75660426  5.29622979  3.21000000
   2.26981277  3.78302128  5.35000000
   0.75660426  5.29622979  7.49000000
   5.29622979  0.75660426  1.07000000
   3.78302128  2.26981277  3.21000000
   5.29622979  0.75660426  5.35000000
   3.78302128  2.26981277  7.49000000
   5.29622979  3.78302128  1.07000000
   3.78302128  5.29622979  3.21000000
   5.29622979  3.78302128  5.35000000
   3.78302128  5.29622979  7.49000000
   2.26981277  0.75660426  9.63000000
   5.29622979  0.75660426  9.63000000
   5.29622979  3.78302128  9.63000000
   2.26981277  3.78302128  9.63000000



--------------------------------------------------------------------------------------------------------


 k-point   1 :   0.1250 0.1250 0.0000  plane waves:   15030
 k-point   2 :   0.3750 0.1250 0.0000  plane waves:   15068
 k-point   3 :   0.3750 0.3750 0.0000  plane waves:   15068

 maximum and minimum number of plane-waves per node :     15068    15030

 maximum number of plane-waves:     15068
 maximum index in each direction: 
   IXMAX=    9   IYMAX=    9   IZMAX=   36
   IXMIN=  -10   IYMIN=  -10   IZMIN=  -36


 serial   3D FFT for wavefunctions
 parallel 3D FFT for charge:
    minimum data exchange during FFTs selected (reduces bandwidth)


 total amount of memory used by VASP MPI-rank0    72296. kBytes
=======================================================================

   base      :      30000. kBytes
   nonl-proj :      22668. kBytes
   fftplans  :       2196. kBytes
   grid      :       7076. kBytes
   one-center:        622. kBytes
   wavefun   :       9734. kBytes

     INWAV:  cpu time      0.0000: real time      0.0003
 Broyden mixing: mesh for mixing (old mesh)
   NGX = 19   NGY = 19   NGZ = 73
  (NGX  = 60   NGY  = 60   NGZ  =224)
  gives a total of  26353 points

 initial charge density was supplied:
 charge density of overlapping atoms calculated
 number of electron     340.0000000 magnetization 
 keeping initial charge density in first step


--------------------------------------------------------------------------------------------------------


 Maximum index for augmentation-charges          426 (set IRDMAX)


--------------------------------------------------------------------------------------------------------


 First call to EWALD:  gamma=   0.189
 Maximum number of real-space cells 4x 4x 1
 Maximum number of reciprocal cells 2x 2x 6

    FEWALD:  cpu time      0.0016: real time      0.0016


--------------------------------------- Iteration      1(   1)  ---------------------------------------


    POTLOK:  cpu time      0.0349: real time      0.0361
    SETDIJ:  cpu time      0.0059: real time      0.0059
     EDDAV:  cpu time      4.2640: real time      4.2978
       DOS:  cpu time      0.0003: real time      0.0003
    --------------------------------------------
      LOOP:  cpu time      4.3052: real time      4.3402

 eigenvalue-minimisations  :  1280
 total energy-change (2. order) : 0.4797144E+04  (-0.1538433E+05)
 number of electron     340.0000000 magnetization 
 augmentation part      340.0000000 magnetization 

 Free energy of the ion-electron system (eV)
  ---------------------------------------------------
  alpha Z        PSCENC =       856.26359874
  Ewald energy   TEWEN  =    124531.99989886
  -Hartree energ DENC   =   -158146.11578475
  -exchange      EXHF   =         0.00000000
  -V(xc)+E(xc)   XCENC  =      1631.52209578
  PAW double counting   =     29408.33949787   -29013.20232444
  entropy T*S    EENTRO =        -0.07591362
  eigenvalues    EBANDS =     -1504.38797381
  atomic energy  EATOM  =     37032.80098409
  Solvation  Ediel_sol  =         0.00000000
  ---------------------------------------------------
  free energy    TOTEN  =      4797.14407872 eV

  energy without entropy =     4797.21999234  energy(sigma->0) =     4797.18203553


--------------------------------------------------------------------------------------------------------




--------------------------------------- Iteration      1(   2)  ---------------------------------------


     EDDAV:  cpu time      4.3164: real time      4.3411
       DOS:  cpu time      0.0003: real time      0.0003
    --------------------------------------------
      LOOP:  cpu time      4.3167: real time      4.3414

 eigenvalue-minimisations  :  1296
 total energy-change (2. order) :-0.4335126E+04  (-0.4178121E+04)
 number of electron     340.0000000 magnetization 
 augmentation part      340.0000000 magnetization 

 Free energy of the ion-electron system (eV)
  ---------------------------------------------------
  alpha Z        PSCENC =       856.26359874
  Ewald energy   TEWEN  =    124531.99989886
  -Hartree energ DENC   =   -158146.11578475
  -exchange      EXHF   =         0.00000000
  -V(xc)+E(xc)   XCENC  =      1631.52209578
  PAW double counting   =     29408.33949787   -29013.20232444
  entropy T*S    EENTRO =        -0.07417858
  eigenvalues    EBANDS =     -5839.51548941
  atomic energy  EATOM  =     37032.80098409
  Solvation  Ediel_sol  =         0.00000000
  ---------------------------------------------------
  free energy    TOTEN  =       462.01829817 eV

  energy without entropy =      462.09247675  energy(sigma->0) =      462.05538746


--------------------------------------------------------------------------------------------------------




--------------------------------------- Iteration      1(   3)  ---------------------------------------


     EDDAV:  cpu time      5.7633: real time      5.7949
       DOS:  cpu time      0.0003: real time      0.0003
    --------------------------------------------
      LOOP:  cpu time      5.7637: real time      5.7952

 eigenvalue-minimisations  :  1856
 total energy-change (2. order) :-0.8360201E+03  (-0.8239890E+03)
 number of electron     340.0000000 magnetization 
 augmentation part      340.0000000 magnetization 

 Free energy of the ion-electron system (eV)
  ---------------------------------------------------
  alpha Z        PSCENC =       856.26359874
  Ewald energy   TEWEN  =    124531.99989886
  -Hartree energ DENC   =   -158146.11578475
  -exchange      EXHF   =         0.00000000
  -V(xc)+E(xc)   XCENC  =      1631.52209578
  PAW double counting   =     29408.33949787   -29013.20232444
  entropy T*S    EENTRO =        -0.06056274
  eigenvalues    EBANDS =     -6675.54920935
  atomic energy  EATOM  =     37032.80098409
  Solvation  Ediel_sol  =         0.00000000
  ---------------------------------------------------
  free energy    TOTEN  =      -374.00180594 eV

  energy without entropy =     -373.94124320  energy(sigma->0) =     -373.97152457


--------------------------------------------------------------------------------------------------------




--------------------------------------- Iteration      1(   4)  ---------------------------------------


     EDDAV:  cpu time      5.8113: real time      5.8432
       DOS:  cpu time      0.0003: real time      0.0003
    --------------------------------------------
      LOOP:  cpu time      5.8116: real time      5.8435

 eigenvalue-minimisations  :  1872
 total energy-change (2. order) :-0.9715394E+02  (-0.9679671E+02)
 number of electron     340.0000000 magnetization 
 augmentation part      340.0000000 magnetization 

 Free energy of the ion-electron system (eV)
  ---------------------------------------------------
  alpha Z        PSCENC =       856.26359874
  Ewald energy   TEWEN  =    124531.99989886
  -Hartree energ DENC   =   -158146.11578475
  -exchange      EXHF   =         0.00000000
  -V(xc)+E(xc)   XCENC  =      1631.52209578
  PAW double counting   =     29408.33949787   -29013.20232444
  entropy T*S    EENTRO =        -0.05604303
  eigenvalues    EBANDS =     -6772.70766910
  atomic energy  EATOM  =     37032.80098409
  Solvation  Ediel_sol  =         0.00000000
  ---------------------------------------------------
  free energy    TOTEN  =      -471.15574597 eV

  energy without entropy =     -471.09970295  energy(sigma->0) =     -471.12772446


--------------------------------------------------------------------------------------------------------




--------------------------------------- Iteration      1(   5)  ---------------------------------------


     EDDAV:  cpu time      6.1911: real time      6.2247
       DOS:  cpu time      0.0003: real time      0.0003
    CHARGE:  cpu time      0.0687: real time      0.0692
    MIXING:  cpu time      0.0011: real time      0.0011
    --------------------------------------------
      LOOP:  cpu time      6.2612: real time      6.2953

 eigenvalue-minimisations  :  2016
 total energy-change (2. order) :-0.8075463E+01  (-0.8071271E+01)
 number of electron     339.9998871 magnetization 
 augmentation part       78.5845469 magnetization 

 Broyden mixing:
  rms(total) = 0.76978E+01    rms(broyden)= 0.76962E+01
  rms(prec ) = 0.81936E+01
  weight for this iteration     100.00

 Free energy of the ion-electron system (eV)
  ---------------------------------------------------
  alpha Z        PSCENC =       856.26359874
  Ewald energy   TEWEN  =    124531.99989886
  -Hartree energ DENC   =   -158146.11578475
  -exchange      EXHF   =         0.00000000
  -V(xc)+E(xc)   XCENC  =      1631.52209578
  PAW double counting   =     29408.33949787   -29013.20232444
  entropy T*S    EENTRO =        -0.05862970
  eigenvalues    EBANDS =     -6780.78054507
  atomic energy  EATOM  =     37032.80098409
  Solvation  Ediel_sol  =         0.00000000
  ---------------------------------------------------
  free energy    TOTEN  =      -479.23120861 eV

  energy without entropy =     -479.17257892  energy(sigma->0) =     -479.20189376


--------------------------------------------------------------------------------------------------------




--------------------------------------- Iteration      1(   6)  ---------------------------------------


    POTLOK:  cpu time      0.0296: real time      0.0298
    SETDIJ:  cpu time      0.0059: real time      0.0059
     EDDAV:  cpu time      5.7966: real time      5.8291
       DOS:  cpu time      0.0003: real time      0.0003
    CHARGE:  cpu time      0.0704: real time      0.0707
    MIXING:  cpu time      0.0014: real time      0.0020
    --------------------------------------------
      LOOP:  cpu time      5.9042: real time      5.9379

 eigenvalue-minimisations  :  1856
 total energy-change (2. order) : 0.9613775E+02  (-0.9464597E+02)
 number of electron     339.9998794 magnetization 
 augmentation part       88.7374627 magnetization 

 Broyden mixing:
  rms(total) = 0.47442E+01    rms(broyden)= 0.47403E+01
  rms(prec ) = 0.54927E+01
  weight for this iteration     100.00

 eigenvalues of (default mixing * dielectric matrix)
  average eigenvalue GAMMA=   0.6961
  0.6961

 Free energy of the ion-electron system (eV)
  ---------------------------------------------------
  alpha Z        PSCENC =       856.26359874
  Ewald energy   TEWEN  =    124531.99989886
  -Hartree energ DENC   =   -158132.73482516
  -exchange      EXHF   =         0.00000000
  -V(xc)+E(xc)   XCENC  =      1621.32323259
  PAW double counting   =     33205.51004952   -32874.64458531
  entropy T*S    EENTRO =        -0.16822968
  eigenvalues    EBANDS =     -6623.44358674
  atomic energy  EATOM  =     37032.80098409
  Solvation  Ediel_sol  =         0.00000000
  ---------------------------------------------------
  free energy    TOTEN  =      -383.09346310 eV

  energy without entropy =     -382.92523341  energy(sigma->0) =     -383.00934825


--------------------------------------------------------------------------------------------------------




--------------------------------------- Iteration      1(   7)  ---------------------------------------


    POTLOK:  cpu time      0.0311: real time      0.0320
    SETDIJ:  cpu time      0.0060: real time      0.0060
     EDDAV:  cpu time      5.7256: real time      5.7560
       DOS:  cpu time      0.0003: real time      0.0003
    CHARGE:  cpu time      0.0673: real time      0.0675
    MIXING:  cpu time      0.0012: real time      0.0013
    --------------------------------------------
      LOOP:  cpu time      5.8316: real time      5.8632

 eigenvalue-minimisations  :  1824
 total energy-change (2. order) :-0.9203860E+01  (-0.6561959E+02)
 number of electron     339.9998855 magnetization 
 augmentation part       84.5424722 magnetization 

 Broyden mixing:
  rms(total) = 0.37734E+01    rms(broyden)= 0.37718E+01
  rms(prec ) = 0.48018E+01
  weight for this iteration     100.00

 eigenvalues of (default mixing * dielectric matrix)
  average eigenvalue GAMMA=   0.7134
  1.0000  0.4269

 Free energy of the ion-electron system (eV)
  ---------------------------------------------------
  alpha Z        PSCENC =       856.26359874
  Ewald energy   TEWEN  =    124531.99989886
  -Hartree energ DENC   =   -157887.08782267
  -exchange      EXHF   =         0.00000000
  -V(xc)+E(xc)   XCENC  =      1623.86672950
  PAW double counting   =     35248.82957982   -34926.08855345
  entropy T*S    EENTRO =        -0.07061338
  eigenvalues    EBANDS =     -6872.81112427
  atomic energy  EATOM  =     37032.80098409
  Solvation  Ediel_sol  =         0.00000000
  ---------------------------------------------------
  free energy    TOTEN  =      -392.29732277 eV

  energy without entropy =     -392.22670938  energy(sigma->0) =     -392.26201608


--------------------------------------------------------------------------------------------------------




--------------------------------------- Iteration      1(   8)  ---------------------------------------


    POTLOK:  cpu time      0.0297: real time      0.0299
    SETDIJ:  cpu time      0.0061: real time      0.0061
     EDDAV:  cpu time      5.7572: real time      5.7879
       DOS:  cpu time      0.0003: real time      0.0003
    CHARGE:  cpu time      0.0682: real time      0.0685
    MIXING:  cpu time      0.0013: real time      0.0013
    --------------------------------------------
      LOOP:  cpu time      5.8628: real time      5.8940

 eigenvalue-minimisations  :  1840
 total energy-change (2. order) : 0.1658065E+02  (-0.3049876E+02)
 number of electron     339.9998890 magnetization 
 augmentation part       80.2901969 magnetization 

 Broyden mixing:
  rms(total) = 0.23797E+01    rms(broyden)= 0.23778E+01
  rms(prec ) = 0.26347E+01
  weight for this iteration     100.00

 eigenvalues of (default mixing * dielectric matrix)
  average eigenvalue GAMMA= ********
  1.0178********  0.2619

 Free energy of the ion-electron system (eV)
  ---------------------------------------------------
  alpha Z        PSCENC =       856.26359874
  Ewald energy   TEWEN  =    124531.99989886
  -Hartree energ DENC   =   -158263.67629644
  -exchange      EXHF   =         0.00000000
  -V(xc)+E(xc)   XCENC  =      1624.02785606
  PAW double counting   =     36352.61393433   -36026.22099987
  entropy T*S    EENTRO =        -0.16136567
  eigenvalues    EBANDS =     -6483.36428468
  atomic energy  EATOM  =     37032.80098409
  Solvation  Ediel_sol  =         0.00000000
  ---------------------------------------------------
  free energy    TOTEN  =      -375.71667459 eV

  energy without entropy =     -375.55530892  energy(sigma->0) =     -375.63599175


--------------------------------------------------------------------------------------------------------




--------------------------------------- Iteration      1(   9)  ---------------------------------------


    POTLOK:  cpu time      0.0298: real time      0.0300
    SETDIJ:  cpu time      0.0061: real time      0.0061
     EDDAV:  cpu time      5.7550: real time      5.7857
       DOS:  cpu time      0.0003: real time      0.0003
    CHARGE:  cpu time      0.0677: real time      0.0680
    MIXING:  cpu time      0.0013: real time      0.0013
    --------------------------------------------
      LOOP:  cpu time      5.8603: real time      5.8915

 eigenvalue-minimisations  :  1840
 total energy-change (2. order) : 0.6659055E+01  (-0.6088752E+01)
 number of electron     339.9998901 magnetization 
 augmentation part       79.3983820 magnetization 

 Broyden mixing:
  rms(total) = 0.13621E+01    rms(broyden)= 0.13613E+01
  rms(prec ) = 0.14360E+01
  weight for this iteration     100.00

 eigenvalues of (default mixing * dielectric matrix)
  average eigenvalue GAMMA= ********
  1.0000  0.9431********  0.3038

 Free energy of the ion-electron system (eV)
  ---------------------------------------------------
  alpha Z        PSCENC =       856.26359874
  Ewald energy   TEWEN  =    124531.99989886
  -Hartree energ DENC   =   -158304.68512608
  -exchange      EXHF   =         0.00000000
  -V(xc)+E(xc)   XCENC  =      1622.49661775
  PAW double counting   =     37530.73971335   -37200.81998816
  entropy T*S    EENTRO =        -0.11000003
  eigenvalues    EBANDS =     -6437.74331815
  atomic energy  EATOM  =     37032.80098409
  Solvation  Ediel_sol  =         0.00000000
  ---------------------------------------------------
  free energy    TOTEN  =      -369.05761962 eV

  energy without entropy =     -368.94761959  energy(sigma->0) =     -369.00261961


--------------------------------------------------------------------------------------------------------




--------------------------------------- Iteration      1(  10)  ---------------------------------------


    POTLOK:  cpu time      0.0296: real time      0.0298
    SETDIJ:  cpu time      0.0060: real time      0.0060
     EDDAV:  cpu time      5.7153: real time      5.7458
       DOS:  cpu time      0.0003: real time      0.0003
    CHARGE:  cpu time      0.0696: real time      0.0699
    MIXING:  cpu time      0.0014: real time      0.0014
    --------------------------------------------
      LOOP:  cpu time      5.8223: real time      5.8532

 eigenvalue-minimisations  :  1824
 total energy-change (2. order) : 0.2271697E+00  (-0.3084945E+01)
 number of electron     339.9998891 magnetization 
 augmentation part       80.5072059 magnetization 

 Broyden mixing:
  rms(total) = 0.11557E+01    rms(broyden)= 0.11552E+01
  rms(prec ) = 0.16536E+01
  weight for this iteration     100.00

 eigenvalues of (default mixing * dielectric matrix)
  average eigenvalue GAMMA= ********
  1.9019********  0.1959********  0.3926

 Free energy of the ion-electron system (eV)
  ---------------------------------------------------
  alpha Z        PSCENC =       856.26359874
  Ewald energy   TEWEN  =    124531.99989886
  -Hartree energ DENC   =   -158329.90676886
  -exchange      EXHF   =         0.00000000
  -V(xc)+E(xc)   XCENC  =      1619.42053813
  PAW double counting   =     40239.32148377   -39891.85947319
  entropy T*S    EENTRO =        -0.12945903
  eigenvalues    EBANDS =     -6426.74125247
  atomic energy  EATOM  =     37032.80098409
  Solvation  Ediel_sol  =         0.00000000
  ---------------------------------------------------
  free energy    TOTEN  =      -368.83044996 eV

  energy without entropy =     -368.70099093  energy(sigma->0) =     -368.76572044


--------------------------------------------------------------------------------------------------------




--------------------------------------- Iteration      1(  11)  ---------------------------------------


    POTLOK:  cpu time      0.0300: real time      0.0301
    SETDIJ:  cpu time      0.0060: real time      0.0060
     EDDAV:  cpu time      5.7596: real time      5.7942
       DOS:  cpu time      0.0003: real time      0.0003
    CHARGE:  cpu time      0.0702: real time      0.0705
    MIXING:  cpu time      0.0016: real time      0.0016
    --------------------------------------------
      LOOP:  cpu time      5.8676: real time      5.9027

 eigenvalue-minimisations  :  1840
 total energy-change (2. order) :-0.1822527E+01  (-0.3242164E+01)
 number of electron     339.9998902 magnetization 
 augmentation part       80.3434832 magnetization 

 Broyden mixing:
  rms(total) = 0.16056E+01    rms(broyden)= 0.16049E+01
  rms(prec ) = 0.26067E+01
  weight for this iteration     100.00

 eigenvalues of (default mixing * dielectric matrix)
  average eigenvalue GAMMA= ********
  1.0000  0.6083********  0.2888********  0.1191

 Free energy of the ion-electron system (eV)
  ---------------------------------------------------
  alpha Z        PSCENC =       856.26359874
  Ewald energy   TEWEN  =    124531.99989886
  -Hartree energ DENC   =   -158346.61523121
  -exchange      EXHF   =         0.00000000
  -V(xc)+E(xc)   XCENC  =      1619.57830677
  PAW double counting   =     40453.81813965   -40100.12342875
  entropy T*S    EENTRO =        -0.16714861
  eigenvalues    EBANDS =     -6418.20809617
  atomic energy  EATOM  =     37032.80098409
  Solvation  Ediel_sol  =         0.00000000
  ---------------------------------------------------
  free energy    TOTEN  =      -370.65297663 eV

  energy without entropy =     -370.48582802  energy(sigma->0) =     -370.56940232


--------------------------------------------------------------------------------------------------------




--------------------------------------- Iteration      1(  12)  ---------------------------------------


    POTLOK:  cpu time      0.0301: real time      0.0302
    SETDIJ:  cpu time      0.0060: real time      0.0061
     EDDAV:  cpu time      5.6374: real time      5.6676
       DOS:  cpu time      0.0003: real time      0.0003
    CHARGE:  cpu time      0.0676: real time      0.0679
    MIXING:  cpu time      0.0015: real time      0.0015
    --------------------------------------------
      LOOP:  cpu time      5.7430: real time      5.7737

 eigenvalue-minimisations  :  1792
 total energy-change (2. order) : 0.3548632E+01  (-0.2568820E+01)
 number of electron     339.9998906 magnetization 
 augmentation part       79.5345178 magnetization 

 Broyden mixing:
  rms(total) = 0.23857E+00    rms(broyden)= 0.23653E+00
  rms(prec ) = 0.26674E+00
  weight for this iteration     100.00

 eigenvalues of (default mixing * dielectric matrix)
  average eigenvalue GAMMA= ********
  0.1399********  0.5214********  0.3541********  0.1169

 Free energy of the ion-electron system (eV)
  ---------------------------------------------------
  alpha Z        PSCENC =       856.26359874
  Ewald energy   TEWEN  =    124531.99989886
  -Hartree energ DENC   =   -158376.87251941
  -exchange      EXHF   =         0.00000000
  -V(xc)+E(xc)   XCENC  =      1620.40787646
  PAW double counting   =     40628.39509160   -40261.41370618
  entropy T*S    EENTRO =        -0.11098312
  eigenvalues    EBANDS =     -6398.57458613
  atomic energy  EATOM  =     37032.80098409
  Solvation  Ediel_sol  =         0.00000000
  ---------------------------------------------------
  free energy    TOTEN  =      -367.10434509 eV

  energy without entropy =     -366.99336197  energy(sigma->0) =     -367.04885353


--------------------------------------------------------------------------------------------------------




--------------------------------------- Iteration      1(  13)  ---------------------------------------


    POTLOK:  cpu time      0.0301: real time      0.0303
    SETDIJ:  cpu time      0.0060: real time      0.0060
     EDDAV:  cpu time      5.4585: real time      5.4878
       DOS:  cpu time      0.0003: real time      0.0003
    CHARGE:  cpu time      0.0679: real time      0.0682
    MIXING:  cpu time      0.0016: real time      0.0016
    --------------------------------------------
      LOOP:  cpu time      5.5646: real time      5.5943

 eigenvalue-minimisations  :  1728
 total energy-change (2. order) :-0.1197095E+00  (-0.1388654E+00)
 number of electron     339.9998910 magnetization 
 augmentation part       79.3908280 magnetization 

 Broyden mixing:
  rms(total) = 0.16242E+00    rms(broyden)= 0.16230E+00
  rms(prec ) = 0.24031E+00
  weight for this iteration     100.00

 eigenvalues of (default mixing * dielectric matrix)
  average eigenvalue GAMMA= ********
  2.0176  2.0176********  0.0633********  0.2313********  0.1159

 Free energy of the ion-electron system (eV)
  ---------------------------------------------------
  alpha Z        PSCENC =       856.26359874
  Ewald energy   TEWEN  =    124531.99989886
  -Hartree energ DENC   =   -158441.68382070
  -exchange      EXHF   =         0.00000000
  -V(xc)+E(xc)   XCENC  =      1620.93068089
  PAW double counting   =     40804.14241172   -40420.95655603
  entropy T*S    EENTRO =        -0.10721032
  eigenvalues    EBANDS =     -6350.61404185
  atomic energy  EATOM  =     37032.80098409
  Solvation  Ediel_sol  =         0.00000000
  ---------------------------------------------------
  free energy    TOTEN  =      -367.22405460 eV

  energy without entropy =     -367.11684428  energy(sigma->0) =     -367.17044944


--------------------------------------------------------------------------------------------------------




--------------------------------------- Iteration      1(  14)  ---------------------------------------


    POTLOK:  cpu time      0.0305: real time      0.0306
    SETDIJ:  cpu time      0.0060: real time      0.0060
     EDDAV:  cpu time      5.5775: real time      5.6079
       DOS:  cpu time      0.0003: real time      0.0003
    CHARGE:  cpu time      0.0665: real time      0.0668
    MIXING:  cpu time      0.0015: real time      0.0015
    --------------------------------------------
      LOOP:  cpu time      5.6823: real time      5.7132

 eigenvalue-minimisations  :  1776
 total energy-change (2. order) :-0.1171891E-01  (-0.7328937E-01)
 number of electron     339.9998907 magnetization 
 augmentation part       79.3310831 magnetization 

 Broyden mixing:
  rms(total) = 0.18617E+00    rms(broyden)= 0.18602E+00
  rms(prec ) = 0.24349E+00
  weight for this iteration     100.00

 eigenvalues of (default mixing * dielectric matrix)
  average eigenvalue GAMMA= ********
  1.1157********  0.4879********  0.3128********  0.3603********  0.1154

 Free energy of the ion-electron system (eV)
  ---------------------------------------------------
  alpha Z        PSCENC =       856.26359874
  Ewald energy   TEWEN  =    124531.99989886
  -Hartree energ DENC   =   -158459.76581243
  -exchange      EXHF   =         0.00000000
  -V(xc)+E(xc)   XCENC  =      1621.36820413
  PAW double counting   =     40870.18824767   -40479.13179017
  entropy T*S    EENTRO =        -0.11161329
  eigenvalues    EBANDS =     -6340.84749110
  atomic energy  EATOM  =     37032.80098409
  Solvation  Ediel_sol  =         0.00000000
  ---------------------------------------------------
  free energy    TOTEN  =      -367.23577351 eV

  energy without entropy =     -367.12416022  energy(sigma->0) =     -367.17996686


--------------------------------------------------------------------------------------------------------




--------------------------------------- Iteration      1(  15)  ---------------------------------------


    POTLOK:  cpu time      0.0304: real time      0.0306
    SETDIJ:  cpu time      0.0058: real time      0.0058
     EDDAV:  cpu time      5.6661: real time      5.6973
       DOS:  cpu time      0.0004: real time      0.0004
    CHARGE:  cpu time      0.0667: real time      0.0670
    MIXING:  cpu time      0.0016: real time      0.0016
    --------------------------------------------
      LOOP:  cpu time      5.7709: real time      5.8026

 eigenvalue-minimisations  :  1808
 total energy-change (2. order) : 0.5367745E-01  (-0.5218565E-01)
 number of electron     339.9998910 magnetization 
 augmentation part       79.4247740 magnetization 

 Broyden mixing:
  rms(total) = 0.83221E-01    rms(broyden)= 0.83063E-01
  rms(prec ) = 0.11195E+00
  weight for this iteration     100.00

 eigenvalues of (default mixing * dielectric matrix)
  average eigenvalue GAMMA= ********
  1.0000  1.8917********  0.5364********  0.4620********  0.5496********  0.1158

 Free energy of the ion-electron system (eV)
  ---------------------------------------------------
  alpha Z        PSCENC =       856.26359874
  Ewald energy   TEWEN  =    124531.99989886
  -Hartree energ DENC   =   -158496.46459714
  -exchange      EXHF   =         0.00000000
  -V(xc)+E(xc)   XCENC  =      1621.46504308
  PAW double counting   =     40955.49945396   -40560.44359833
  entropy T*S    EENTRO =        -0.11095596
  eigenvalues    EBANDS =     -6308.19192336
  atomic energy  EATOM  =     37032.80098409
  Solvation  Ediel_sol  =         0.00000000
  ---------------------------------------------------
  free energy    TOTEN  =      -367.18209606 eV

  energy without entropy =     -367.07114010  energy(sigma->0) =     -367.12661808


--------------------------------------------------------------------------------------------------------




--------------------------------------- Iteration      1(  16)  ---------------------------------------


    POTLOK:  cpu time      0.0307: real time      0.0309
    SETDIJ:  cpu time      0.0058: real time      0.0059
     EDDAV:  cpu time      5.8551: real time      5.8885
       DOS:  cpu time      0.0003: real time      0.0003
    CHARGE:  cpu time      0.0684: real time      0.0687
    MIXING:  cpu time      0.0017: real time      0.0017
    --------------------------------------------
      LOOP:  cpu time      5.9621: real time      5.9960

 eigenvalue-minimisations  :  1872
 total energy-change (2. order) : 0.4990618E-02  (-0.7870062E-02)
 number of electron     339.9998910 magnetization 
 augmentation part       79.3668385 magnetization 

 Broyden mixing:
  rms(total) = 0.56318E-01    rms(broyden)= 0.56297E-01
  rms(prec ) = 0.76602E-01
  weight for this iteration     100.00

 eigenvalues of (default mixing * dielectric matrix)
  average eigenvalue GAMMA= ********
  2.1697********  0.6167********  0.6099********  0.6496********  0.6039********
  0.3684

 Free energy of the ion-electron system (eV)
  ---------------------------------------------------
  alpha Z        PSCENC =       856.26359874
  Ewald energy   TEWEN  =    124531.99989886
  -Hartree energ DENC   =   -158508.87108160
  -exchange      EXHF   =         0.00000000
  -V(xc)+E(xc)   XCENC  =      1621.54205446
  PAW double counting   =     40961.05696018   -40564.34226541
  entropy T*S    EENTRO =        -0.11316048
  eigenvalues    EBANDS =     -6297.51409429
  atomic energy  EATOM  =     37032.80098409
  Solvation  Ediel_sol  =         0.00000000
  ---------------------------------------------------
  free energy    TOTEN  =      -367.17710544 eV

  energy without entropy =     -367.06394496  energy(sigma->0) =     -367.12052520


--------------------------------------------------------------------------------------------------------




--------------------------------------- Iteration      1(  17)  ---------------------------------------


    POTLOK:  cpu time      0.0308: real time      0.0310
    SETDIJ:  cpu time      0.0060: real time      0.0060
     EDDAV:  cpu time      5.5059: real time      5.5352
       DOS:  cpu time      0.0003: real time      0.0004
    CHARGE:  cpu time      0.0688: real time      0.0691
    MIXING:  cpu time      0.0018: real time      0.0018
    --------------------------------------------
      LOOP:  cpu time      5.6137: real time      5.6435

 eigenvalue-minimisations  :  1728
 total energy-change (2. order) : 0.5057351E-02  (-0.2888942E-02)
 number of electron     339.9998910 magnetization 
 augmentation part       79.3400868 magnetization 

 Broyden mixing:
  rms(total) = 0.26549E-01    rms(broyden)= 0.26528E-01
  rms(prec ) = 0.34869E-01
  weight for this iteration     100.00

 eigenvalues of (default mixing * dielectric matrix)
  average eigenvalue GAMMA= ********
  1.0000  1.2399********  0.6396********  0.3171********  0.0027********  0.3184
********  0.3217

 Free energy of the ion-electron system (eV)
  ---------------------------------------------------
  alpha Z        PSCENC =       856.26359874
  Ewald energy   TEWEN  =    124531.99989886
  -Hartree energ DENC   =   -158513.11701331
  -exchange      EXHF   =         0.00000000
  -V(xc)+E(xc)   XCENC  =      1621.57798041
  PAW double counting   =     40956.18998129   -40558.83686112
  entropy T*S    EENTRO =        -0.11410407
  eigenvalues    EBANDS =     -6293.93651297
  atomic energy  EATOM  =     37032.80098409
  Solvation  Ediel_sol  =         0.00000000
  ---------------------------------------------------
  free energy    TOTEN  =      -367.17204809 eV

  energy without entropy =     -367.05794402  energy(sigma->0) =     -367.11499606


--------------------------------------------------------------------------------------------------------




--------------------------------------- Iteration      1(  18)  ---------------------------------------


    POTLOK:  cpu time      0.0313: real time      0.0321
    SETDIJ:  cpu time      0.0060: real time      0.0060
     EDDAV:  cpu time      5.6508: real time      5.6805
       DOS:  cpu time      0.0003: real time      0.0003
    CHARGE:  cpu time      0.0684: real time      0.0687
    MIXING:  cpu time      0.0018: real time      0.0018
    --------------------------------------------
      LOOP:  cpu time      5.7585: real time      5.7895

 eigenvalue-minimisations  :  1792
 total energy-change (2. order) :-0.1044171E-02  (-0.1193406E-02)
 number of electron     339.9998910 magnetization 
 augmentation part       79.3375474 magnetization 

 Broyden mixing:
  rms(total) = 0.40188E-01    rms(broyden)= 0.40183E-01
  rms(prec ) = 0.53321E-01
  weight for this iteration     100.00

 eigenvalues of (default mixing * dielectric matrix)
  average eigenvalue GAMMA= ********
  1.2175********  0.5039********  0.8501********  4.0657********  0.5496********
  0.3521********  0.3252

 Free energy of the ion-electron system (eV)
  ---------------------------------------------------
  alpha Z        PSCENC =       856.26359874
  Ewald energy   TEWEN  =    124531.99989886
  -Hartree energ DENC   =   -158528.77612807
  -exchange      EXHF   =         0.00000000
  -V(xc)+E(xc)   XCENC  =      1621.63989198
  PAW double counting   =     40960.86255206   -40562.12681970
  entropy T*S    EENTRO =        -0.11443341
  eigenvalues    EBANDS =     -6279.72263681
  atomic energy  EATOM  =     37032.80098409
  Solvation  Ediel_sol  =         0.00000000
  ---------------------------------------------------
  free energy    TOTEN  =      -367.17309226 eV

  energy without entropy =     -367.05865885  energy(sigma->0) =     -367.11587556


--------------------------------------------------------------------------------------------------------




--------------------------------------- Iteration      1(  19)  ---------------------------------------


    POTLOK:  cpu time      0.0309: real time      0.0311
    SETDIJ:  cpu time      0.0060: real time      0.0061
     EDDAV:  cpu time      5.6498: real time      5.6795
       DOS:  cpu time      0.0003: real time      0.0003
    CHARGE:  cpu time      0.0685: real time      0.0687
    MIXING:  cpu time      0.0019: real time      0.0019
    --------------------------------------------
      LOOP:  cpu time      5.7574: real time      5.7876

 eigenvalue-minimisations  :  1792
 total energy-change (2. order) : 0.2636906E-02  (-0.1624300E-02)
 number of electron     339.9998910 magnetization 
 augmentation part       79.3090111 magnetization 

 Broyden mixing:
  rms(total) = 0.92585E-02    rms(broyden)= 0.91983E-02
  rms(prec ) = 0.13927E-01
  weight for this iteration     100.00

 eigenvalues of (default mixing * dielectric matrix)
  average eigenvalue GAMMA= ********
  3.4414  3.4414********  0.2922********  0.5252********  0.6043********  0.1018
********  0.2835********  0.3241

 Free energy of the ion-electron system (eV)
  ---------------------------------------------------
  alpha Z        PSCENC =       856.26359874
  Ewald energy   TEWEN  =    124531.99989886
  -Hartree energ DENC   =   -158532.92695376
  -exchange      EXHF   =         0.00000000
  -V(xc)+E(xc)   XCENC  =      1621.64871459
  PAW double counting   =     40941.09078611   -40542.54173690
  entropy T*S    EENTRO =        -0.11542094
  eigenvalues    EBANDS =     -6275.39032615
  atomic energy  EATOM  =     37032.80098409
  Solvation  Ediel_sol  =         0.00000000
  ---------------------------------------------------
  free energy    TOTEN  =      -367.17045536 eV

  energy without entropy =     -367.05503442  energy(sigma->0) =     -367.11274489


--------------------------------------------------------------------------------------------------------




--------------------------------------- Iteration      1(  20)  ---------------------------------------


    POTLOK:  cpu time      0.0308: real time      0.0309
    SETDIJ:  cpu time      0.0060: real time      0.0060
     EDDAV:  cpu time      5.7378: real time      5.7682
       DOS:  cpu time      0.0003: real time      0.0003
    CHARGE:  cpu time      0.0683: real time      0.0685
    MIXING:  cpu time      0.0020: real time      0.0020
    --------------------------------------------
      LOOP:  cpu time      5.8452: real time      5.8760

 eigenvalue-minimisations  :  1824
 total energy-change (2. order) : 0.6286217E-03  (-0.2142638E-03)
 number of electron     339.9998909 magnetization 
 augmentation part       79.3165323 magnetization 

 Broyden mixing:
  rms(total) = 0.73711E-02    rms(broyden)= 0.73654E-02
  rms(prec ) = 0.10718E-01
  weight for this iteration     100.00

 eigenvalues of (default mixing * dielectric matrix)
  average eigenvalue GAMMA= ********
  9.7423********  1.7515********  0.5073********  0.5207********  0.3359********
  0.3443********  0.2025********  0.3243

 Free energy of the ion-electron system (eV)
  ---------------------------------------------------
  alpha Z        PSCENC =       856.26359874
  Ewald energy   TEWEN  =    124531.99989886
  -Hartree energ DENC   =   -158539.88690011
  -exchange      EXHF   =         0.00000000
  -V(xc)+E(xc)   XCENC  =      1621.65487431
  PAW double counting   =     40942.27224557   -40543.55423097
  entropy T*S    EENTRO =        -0.11577487
  eigenvalues    EBANDS =     -6268.60452236
  atomic energy  EATOM  =     37032.80098409
  Solvation  Ediel_sol  =         0.00000000
  ---------------------------------------------------
  free energy    TOTEN  =      -367.16982673 eV

  energy without entropy =     -367.05405187  energy(sigma->0) =     -367.11193930


--------------------------------------------------------------------------------------------------------




--------------------------------------- Iteration      1(  21)  ---------------------------------------


    POTLOK:  cpu time      0.0308: real time      0.0309
    SETDIJ:  cpu time      0.0060: real time      0.0061
     EDDAV:  cpu time      5.1993: real time      5.2305
       DOS:  cpu time      0.0003: real time      0.0003
    CHARGE:  cpu time      0.0664: real time      0.0668
    MIXING:  cpu time      0.0021: real time      0.0021
    --------------------------------------------
      LOOP:  cpu time      5.3050: real time      5.3366

 eigenvalue-minimisations  :  1632
 total energy-change (2. order) : 0.5010777E-03  (-0.8650074E-04)
 number of electron     339.9998909 magnetization 
 augmentation part       79.3171791 magnetization 

 Broyden mixing:
  rms(total) = 0.59393E-02    rms(broyden)= 0.59327E-02
  rms(prec ) = 0.87078E-02
  weight for this iteration     100.00

 eigenvalues of (default mixing * dielectric matrix)
  average eigenvalue GAMMA= ********
  1.0000  1.6706********  1.4020********  0.1036********  6.6903********  0.8773
********  0.3578********  0.2175********  0.3231

 Free energy of the ion-electron system (eV)
  ---------------------------------------------------
  alpha Z        PSCENC =       856.26359874
  Ewald energy   TEWEN  =    124531.99989886
  -Hartree energ DENC   =   -158543.11018714
  -exchange      EXHF   =         0.00000000
  -V(xc)+E(xc)   XCENC  =      1621.62860130
  PAW double counting   =     40934.02285618   -40535.81780849
  entropy T*S    EENTRO =        -0.11597135
  eigenvalues    EBANDS =     -6264.84129783
  atomic energy  EATOM  =     37032.80098409
  Solvation  Ediel_sol  =         0.00000000
  ---------------------------------------------------
  free energy    TOTEN  =      -367.16932566 eV

  energy without entropy =     -367.05335430  energy(sigma->0) =     -367.11133998


--------------------------------------------------------------------------------------------------------




--------------------------------------- Iteration      1(  22)  ---------------------------------------


    POTLOK:  cpu time      0.0310: real time      0.0311
    SETDIJ:  cpu time      0.0058: real time      0.0058
     EDDAV:  cpu time      5.2340: real time      5.2630
       DOS:  cpu time      0.0003: real time      0.0003
    CHARGE:  cpu time      0.0665: real time      0.0668
    MIXING:  cpu time      0.0023: real time      0.0024
    --------------------------------------------
      LOOP:  cpu time      5.3400: real time      5.3694

 eigenvalue-minimisations  :  1648
 total energy-change (2. order) : 0.3460403E-03  (-0.5201739E-04)
 number of electron     339.9998909 magnetization 
 augmentation part       79.3195944 magnetization 

 Broyden mixing:
  rms(total) = 0.26857E-02    rms(broyden)= 0.26828E-02
  rms(prec ) = 0.41773E-02
  weight for this iteration     100.00

 eigenvalues of (default mixing * dielectric matrix)
  average eigenvalue GAMMA= ********
  1.5809********  2.6040********  0.2450********  0.6653********  0.5167********
  0.3733********  0.4552********  0.0746********  0.3223

 Free energy of the ion-electron system (eV)
  ---------------------------------------------------
  alpha Z        PSCENC =       856.26359874
  Ewald energy   TEWEN  =    124531.99989886
  -Hartree energ DENC   =   -158549.20942813
  -exchange      EXHF   =         0.00000000
  -V(xc)+E(xc)   XCENC  =      1621.62834243
  PAW double counting   =     40934.08688404   -40535.70058757
  entropy T*S    EENTRO =        -0.11603668
  eigenvalues    EBANDS =     -6258.92263540
  atomic energy  EATOM  =     37032.80098409
  Solvation  Ediel_sol  =         0.00000000
  ---------------------------------------------------
  free energy    TOTEN  =      -367.16897962 eV

  energy without entropy =     -367.05294293  energy(sigma->0) =     -367.11096127


--------------------------------------------------------------------------------------------------------




--------------------------------------- Iteration      1(  23)  ---------------------------------------


    POTLOK:  cpu time      0.0307: real time      0.0309
    SETDIJ:  cpu time      0.0060: real time      0.0060
     EDDAV:  cpu time      5.1421: real time      5.1694
       DOS:  cpu time      0.0003: real time      0.0003
    CHARGE:  cpu time      0.0686: real time      0.0689
    MIXING:  cpu time      0.0021: real time      0.0021
    --------------------------------------------
      LOOP:  cpu time      5.2499: real time      5.2776

 eigenvalue-minimisations  :  1600
 total energy-change (2. order) :-0.3130199E-03  (-0.2430503E-04)
 number of electron     339.9998909 magnetization 
 augmentation part       79.3162696 magnetization 

 Broyden mixing:
  rms(total) = 0.31174E-02    rms(broyden)= 0.31160E-02
  rms(prec ) = 0.43335E-02
  weight for this iteration     100.00

 eigenvalues of (default mixing * dielectric matrix)
  average eigenvalue GAMMA= ********
  1.0000  3.3972********  2.8802********  1.1043********  0.6149********  0.0698
********  0.5985********  0.8574********  0.1461********  0.3234

 Free energy of the ion-electron system (eV)
  ---------------------------------------------------
  alpha Z        PSCENC =       856.26359874
  Ewald energy   TEWEN  =    124531.99989886
  -Hartree energ DENC   =   -158551.55042549
  -exchange      EXHF   =         0.00000000
  -V(xc)+E(xc)   XCENC  =      1621.61739374
  PAW double counting   =     40932.17418441   -40533.96206956
  entropy T*S    EENTRO =        -0.11615692
  eigenvalues    EBANDS =     -6256.39670051
  atomic energy  EATOM  =     37032.80098409
  Solvation  Ediel_sol  =         0.00000000
  ---------------------------------------------------
  free energy    TOTEN  =      -367.16929264 eV

  energy without entropy =     -367.05313572  energy(sigma->0) =     -367.11121418


--------------------------------------------------------------------------------------------------------




--------------------------------------- Iteration      1(  24)  ---------------------------------------


    POTLOK:  cpu time      0.0307: real time      0.0308
    SETDIJ:  cpu time      0.0060: real time      0.0060
     EDDAV:  cpu time      4.6580: real time      4.6829
       DOS:  cpu time      0.0003: real time      0.0003
    CHARGE:  cpu time      0.0684: real time      0.0687
    MIXING:  cpu time      0.0023: real time      0.0023
    --------------------------------------------
      LOOP:  cpu time      4.7657: real time      4.7911

 eigenvalue-minimisations  :  1408
 total energy-change (2. order) :-0.3725254E-03  (-0.7755573E-05)
 number of electron     339.9998909 magnetization 
 augmentation part       79.3170633 magnetization 

 Broyden mixing:
  rms(total) = 0.22362E-02    rms(broyden)= 0.22358E-02
  rms(prec ) = 0.28594E-02
  weight for this iteration     100.00

 eigenvalues of (default mixing * dielectric matrix)
  average eigenvalue GAMMA= ********
  1.8970********  1.9397********  1.8481********  6.5527********  0.0939********
  0.5798********  0.5363********  0.2081********  0.1676********  0.3228

 Free energy of the ion-electron system (eV)
  ---------------------------------------------------
  alpha Z        PSCENC =       856.26359874
  Ewald energy   TEWEN  =    124531.99989886
  -Hartree energ DENC   =   -158553.91646963
  -exchange      EXHF   =         0.00000000
  -V(xc)+E(xc)   XCENC  =      1621.62251971
  PAW double counting   =     40934.73488561   -40536.45000103
  entropy T*S    EENTRO =        -0.11610426
  eigenvalues    EBANDS =     -6254.10897725
  atomic energy  EATOM  =     37032.80098409
  Solvation  Ediel_sol  =         0.00000000
  ---------------------------------------------------
  free energy    TOTEN  =      -367.16966516 eV

  energy without entropy =     -367.05356090  energy(sigma->0) =     -367.11161303


--------------------------------------------------------------------------------------------------------




--------------------------------------- Iteration      1(  25)  ---------------------------------------


    POTLOK:  cpu time      0.0307: real time      0.0309
    SETDIJ:  cpu time      0.0060: real time      0.0060
     EDDAV:  cpu time      3.9359: real time      3.9572
       DOS:  cpu time      0.0003: real time      0.0003
    CHARGE:  cpu time      0.0684: real time      0.0687
[...]
    157       0.4631      2.00000
    158       0.4981      2.00000
    159       0.5647      2.00000
    160       0.8233      2.00000
    161       2.2062      2.00000
    162       2.8597      2.00000
    163       2.8597      2.00000
    164       2.9773      2.00000
    165       3.4597      2.00000
    166       3.8175      1.98386
    167       3.8175      1.98386
    168       3.9389      1.50918
    169       4.0154      0.69422
    170       4.0921      0.13947
    171       4.2235      0.00085
    172       4.4967      0.00000
    173       4.5347      0.00000
    174       4.6661      0.00000
    175       4.7671      0.00000
    176       4.7686      0.00000
    177       4.7816      0.00000
    178       4.7816      0.00000
    179       4.8444      0.00000
    180       4.8444      0.00000
    181       4.8841      0.00000
    182       4.9461      0.00000
    183       4.9461      0.00000
    184       5.0012      0.00000
    185       5.0012      0.00000
    186       5.1251      0.00000
    187       5.1251      0.00000
    188       5.1588      0.00000
    189       5.2064      0.00000
    190       5.2836      0.00000
    191       5.2894      0.00000
    192       5.2894      0.00000
    193       5.3122      0.00000
    194       5.3122      0.00000
    195       5.3124      0.00000
    196       5.4441      0.00000
    197       5.4457      0.00000
    198       5.4457      0.00000
    199       5.5454      0.00000
    200       5.6015      0.00000
    201       5.6167      0.00000
    202       5.6710      0.00000
    203       5.6710      0.00000
    204       5.7140      0.00000
    205       5.7140      0.00000
    206       5.7204      0.00000
    207       5.7543      0.00000
    208       5.7564      0.00000


--------------------------------------------------------------------------------------------------------


 soft charge-density along one line, spin component           1
         0         1         2         3         4         5         6         7         8         9
 total charge-density along one line

 pseudopotential strength for first ion, spin component:           1
 -2.768 -22.871   0.000   0.001  -0.000  -0.000   0.001   0.000
-22.871  10.331   0.000  -0.010  -0.000   0.000   0.000  -0.000
  0.000   0.000 -25.767  -0.000   0.000   9.433   0.000  -0.000
  0.001  -0.010  -0.000 -25.832   0.000   0.000   9.475  -0.000
 -0.000  -0.000   0.000   0.000 -25.767  -0.000  -0.000   9.433
 -0.000   0.000   9.433   0.000  -0.000   5.523  -0.000   0.000
  0.001   0.000   0.000   9.475  -0.000  -0.000   5.515   0.000
  0.000  -0.000  -0.000  -0.000   9.433   0.000   0.000   5.523
  0.000   0.000  -0.000   0.000   0.000   0.000  -0.000  -0.000
 -0.000  -0.000   0.000   0.000   0.000  -0.003  -0.000  -0.000
 -0.025  -0.013  -0.000  -0.007   0.000   0.000   0.005  -0.000
  0.000   0.000   0.000  -0.000   0.000  -0.000   0.000  -0.003
 -0.000  -0.000  -0.000  -0.000  -0.000   0.000   0.000   0.000
  0.000   0.000  -0.000   0.000   0.000   0.000  -0.000  -0.000
 -0.000  -0.000   0.000   0.000   0.000  -0.003  -0.000  -0.000
 -0.031  -0.015  -0.000  -0.008   0.000   0.000   0.004  -0.000
  0.000   0.000   0.000  -0.000   0.000  -0.000   0.000  -0.003
 -0.000  -0.000  -0.000  -0.000  -0.000   0.000   0.000   0.000
 total augmentation occupancy for first ion, spin component:           1
  1.994  -0.074   0.000   0.002   0.000   0.000   0.003   0.000   0.000   0.000   0.009  -0.000  -0.000  -0.000   0.000  -0.004
 -0.074   1.183   0.000   0.010   0.000   0.000  -0.112   0.000   0.000   0.000  -0.185   0.000   0.000   0.000  -0.000   0.122
  0.000   0.000   1.977   0.000   0.000  -0.052   0.000   0.000   0.000  -0.003  -0.000  -0.000   0.000  -0.000   0.002   0.000
  0.002   0.010   0.000   1.981   0.000   0.000  -0.045   0.000  -0.000  -0.000  -0.022  -0.000   0.000   0.000   0.000   0.028
  0.000   0.000   0.000   0.000   1.977   0.000   0.000  -0.052  -0.000  -0.000   0.000  -0.003  -0.000   0.000   0.000   0.000
  0.000   0.000  -0.052   0.000   0.000   0.156   0.000   0.000   0.000  -0.013  -0.000  -0.000   0.000  -0.000   0.012   0.000
  0.003  -0.112   0.000  -0.045   0.000   0.000   0.108   0.000   0.000   0.000  -0.506  -0.000   0.000   0.000  -0.000   0.326
  0.000   0.000   0.000   0.000  -0.052   0.000   0.000   0.156  -0.000  -0.000   0.000  -0.013   0.000   0.000   0.000   0.000
  0.000   0.000   0.000  -0.000  -0.000   0.000   0.000  -0.000   5.959  -0.000  -0.000  -0.000   0.000  -3.651   0.000  -0.000
  0.000   0.000  -0.003  -0.000  -0.000  -0.013   0.000  -0.000  -0.000   2.348   0.000   0.000  -0.000  -0.000  -1.172  -0.000
  0.009  -0.185  -0.000  -0.022   0.000  -0.000  -0.506   0.000  -0.000   0.000   5.160  -0.000  -0.000   0.000  -0.000  -3.205
 -0.000   0.000  -0.000  -0.000  -0.003  -0.000  -0.000  -0.013  -0.000  -0.000  -0.000   2.348  -0.000  -0.000  -0.000  -0.000
 -0.000   0.000   0.000   0.000  -0.000   0.000   0.000   0.000   0.000  -0.000  -0.000  -0.000   2.435   0.000   0.000   0.000
 -0.000   0.000  -0.000   0.000   0.000  -0.000   0.000   0.000  -3.651  -0.000   0.000  -0.000   0.000   2.278  -0.000   0.000
  0.000  -0.000   0.002   0.000   0.000   0.012  -0.000   0.000   0.000  -1.172  -0.000  -0.000   0.000  -0.000   0.669   0.000
 -0.004   0.122   0.000   0.028   0.000   0.000   0.326   0.000  -0.000  -0.000  -3.205  -0.000   0.000   0.000   0.000   2.039
  0.000   0.000   0.000   0.000   0.002   0.000  -0.000   0.012  -0.000  -0.000   0.000  -1.172  -0.000   0.000  -0.000   0.000
  0.000  -0.000   0.000  -0.000   0.000  -0.000  -0.000  -0.000   0.000  -0.000   0.000   0.000  -1.288   0.000   0.000  -0.000


------------------------ aborting loop because EDIFF is reached ----------------------------------------



 DIPCOR: dipole corrections for dipol
 direction  3 min pos   168,
 dipolmoment           0.000000      0.000000      0.250856 electrons x Angstroem
 Tr[quadrupol]     -1933.211397

 energy correction for charged system         0.000000 eV
 dipol+quadrupol energy correction            0.006867 eV
 added-field ion interaction          0.000000 eV  (added to PSCEN)


  *************** adding dipol energy to TOTEN NOW **************** 
    CHARGE:  cpu time      0.0682: real time      0.0685
    FORLOC:  cpu time      0.0064: real time      0.0065
    FORNL :  cpu time      1.9999: real time      2.0063
    STRESS:  cpu time      4.3227: real time      4.3422
    FORCOR:  cpu time      0.0338: real time      0.0340
    FORHAR:  cpu time      0.0125: real time      0.0126
    MIXING:  cpu time      0.0009: real time      0.0009
    OFIELD:  cpu time      0.0000: real time      0.0000

  FORCE on cell =-STRESS in cart. coord.  units (eV):
  Direction    XX          YY          ZZ          XY          YZ          ZX
  --------------------------------------------------------------------------------------
  Alpha Z   856.26360   856.26360   856.26360
  Ewald  145600.69428145600.69428************     0.00000    -0.00000     0.00000
  Hartree154691.72705154691.72705************    -0.00000     0.00000    -0.00000
  E(xc)   -1700.87039 -1700.87039 -1708.51511    -0.00000    -0.00000     0.00000
  Local  ************************310992.07829    -0.00000     0.00000     0.00000
  n-local  -788.06302  -779.00327  -774.67101   -14.15019    -0.00001     0.00001
  augment  1293.81676  1293.81676  1285.23394     0.00000    -0.00000     0.00000
  Kinetic  5381.94137  5360.83639  5366.18002    23.71477    -0.00003     0.00003
  Fock        0.00000     0.00000     0.00000     0.00000     0.00000     0.00000
  -------------------------------------------------------------------------------------
  Total     -32.66740   -32.66740   -18.99427    -0.00000     0.00000    -0.00000
  in kB     -63.12814   -63.12814   -36.70549    -0.00000     0.00000    -0.00000
  external pressure =      -54.32 kB  Pullay stress =        0.00 kB


 VOLUME and BASIS-vectors are now :
 -----------------------------------------------------------------------------
  energy-cutoff  :      400.00
  volume of cell :      829.09
      direct lattice vectors                 reciprocal lattice vectors
     6.052834047  0.000000000  0.000000000     0.165211865  0.000000000  0.000000000
     0.000000000  6.052834047  0.000000000     0.000000000  0.165211865  0.000000000
     0.000000000  0.000000000 22.630000000     0.000000000  0.000000000  0.044189129

  length of vectors
     6.052834047  6.052834047 22.630000000     0.165211865  0.165211865  0.044189129


 FORCES acting on ions
    electron-ion (+dipol)            ewald-force                    non-local-force                 convergence-correction
 -----------------------------------------------------------------------------------------------
   0.165E-07 0.259E-07 -.422E+04   -.312E-07 0.311E-07 0.422E+04   -.106E-20 0.673E-21 0.280E+01   -.403E-11 0.887E-12 -.727E-01
   0.695E-07 0.259E-07 -.422E+04   0.187E-07 0.311E-07 0.422E+04   -.230E-20 -.865E-21 0.280E+01   0.369E-11 -.343E-12 -.727E-01
   0.695E-07 -.271E-07 -.422E+04   0.187E-07 -.186E-07 0.422E+04   -.890E-21 -.293E-21 0.280E+01   0.335E-11 -.149E-11 -.727E-01
   0.165E-07 -.271E-07 -.422E+04   -.312E-07 -.186E-07 0.422E+04   -.458E-21 0.123E-21 0.280E+01   -.367E-11 -.901E-12 -.727E-01
   0.163E-07 -.265E-07 0.423E+04   -.305E-07 -.183E-07 -.423E+04   -.121E-20 -.589E-21 -.350E+01   0.322E-11 0.883E-12 0.103E+00
   0.479E-07 -.577E-07 0.213E+04   -.204E-07 -.346E-07 -.213E+04   -.763E-21 -.415E-21 0.334E+00   0.703E-12 -.113E-11 0.840E-01
   0.175E-07 -.267E-07 0.162E+02   -.353E-07 -.211E-07 -.160E+02   -.362E-21 0.262E-21 -.154E+00   0.248E-11 0.337E-12 -.813E-01
   0.475E-07 -.567E-07 -.212E+04   -.203E-07 -.352E-07 0.212E+04   0.831E-21 -.178E-21 -.217E+00   -.107E-11 0.213E-11 -.174E+00
   0.163E-07 0.255E-07 0.423E+04   -.305E-07 0.304E-07 -.423E+04   0.190E-20 -.111E-20 -.350E+01   0.263E-11 -.793E-12 0.103E+00
   0.479E-07 -.516E-08 0.213E+04   -.204E-07 0.205E-07 -.213E+04   -.162E-20 0.271E-21 0.334E+00   0.913E-12 -.518E-12 0.840E-01
   0.175E-07 0.251E-07 0.162E+02   -.353E-07 0.353E-07 -.160E+02   -.190E-20 -.609E-21 -.154E+00   0.232E-11 -.230E-12 -.813E-01
   0.475E-07 -.517E-08 -.212E+04   -.203E-07 0.204E-07 0.212E+04   0.169E-20 0.563E-22 -.217E+00   -.134E-11 -.135E-11 -.174E+00
   0.683E-07 -.265E-07 0.423E+04   0.183E-07 -.183E-07 -.423E+04   -.303E-21 0.379E-21 -.350E+01   -.406E-11 0.454E-12 0.103E+00
   0.100E-06 -.577E-07 0.213E+04   0.346E-07 -.346E-07 -.213E+04   -.741E-21 0.485E-22 0.334E+00   0.226E-11 -.101E-11 0.840E-01
   0.693E-07 -.267E-07 0.162E+02   0.212E-07 -.211E-07 -.160E+02   0.504E-21 -.592E-21 -.154E+00   -.200E-11 0.315E-12 -.813E-01
   0.990E-07 -.567E-07 -.212E+04   0.351E-07 -.352E-07 0.212E+04   0.163E-20 0.192E-21 -.217E+00   -.431E-12 0.231E-11 -.174E+00
   0.683E-07 0.255E-07 0.423E+04   0.183E-07 0.304E-07 -.423E+04   -.611E-21 0.193E-21 -.350E+01   -.346E-11 -.960E-12 0.103E+00
   0.100E-06 -.515E-08 0.213E+04   0.346E-07 0.205E-07 -.213E+04   -.117E-20 0.278E-21 0.334E+00   0.205E-11 -.865E-12 0.840E-01
   0.693E-07 0.251E-07 0.162E+02   0.212E-07 0.353E-07 -.160E+02   -.273E-20 0.256E-21 -.154E+00   -.185E-11 0.445E-13 -.813E-01
   0.990E-07 -.517E-08 -.212E+04   0.351E-07 0.204E-07 0.212E+04   0.881E-21 0.144E-21 -.217E+00   -.150E-12 -.289E-11 -.174E+00
   0.176E-07 -.196E-07 0.179E+04   -.500E-08 -.155E-07 -.179E+04   -.330E-19 0.277E-20 0.324E+01   -.822E-12 -.518E-12 0.459E-01
   0.972E-08 -.106E-07 0.883E+03   -.179E-07 -.712E-08 -.882E+03   -.122E-18 0.298E-19 -.847E+00   0.114E-11 0.331E-12 0.412E-01
   0.187E-07 -.196E-07 0.137E+02   -.719E-08 -.180E-07 -.138E+02   0.836E-19 -.438E-19 0.146E+00   -.327E-12 0.111E-11 -.346E-01
   0.985E-08 -.108E-07 -.863E+03   -.182E-07 -.743E-08 0.862E+03   0.140E-19 0.177E-19 0.115E+01   -.102E-11 -.437E-12 -.811E-01
   0.176E-07 -.788E-09 0.179E+04   -.500E-08 0.502E-08 -.179E+04   0.153E-18 0.116E-19 0.324E+01   -.880E-12 -.417E-13 0.459E-01
   0.972E-08 0.747E-08 0.883E+03   -.179E-07 0.179E-07 -.882E+03   0.846E-19 -.413E-20 -.847E+00   0.127E-11 -.406E-12 0.412E-01
   0.187E-07 -.145E-08 0.137E+02   -.719E-08 0.722E-08 -.138E+02   -.585E-19 0.457E-19 0.146E+00   -.525E-12 -.337E-12 -.346E-01
   0.985E-08 0.763E-08 -.863E+03   -.182E-07 0.182E-07 0.862E+03   -.604E-19 -.329E-19 0.115E+01   -.504E-12 0.478E-12 -.811E-01
   0.364E-07 -.196E-07 0.179E+04   0.154E-07 -.155E-07 -.179E+04   -.178E-19 -.398E-19 0.324E+01   0.159E-11 -.668E-12 0.459E-01
   0.278E-07 -.106E-07 0.883E+03   0.714E-08 -.712E-08 -.882E+03   -.162E-19 -.164E-19 -.847E+00   -.114E-11 0.330E-12 0.412E-01
   0.368E-07 -.196E-07 0.137E+02   0.180E-07 -.180E-07 -.138E+02   0.148E-19 0.117E-19 0.146E+00   -.403E-12 0.109E-11 -.346E-01
   0.283E-07 -.108E-07 -.863E+03   0.746E-08 -.743E-08 0.862E+03   -.153E-19 -.890E-20 0.115E+01   0.127E-11 -.579E-12 -.811E-01
   0.364E-07 -.789E-09 0.179E+04   0.154E-07 0.502E-08 -.179E+04   0.901E-19 -.294E-19 0.324E+01   0.166E-11 0.562E-12 0.459E-01
   0.278E-07 0.747E-08 0.883E+03   0.714E-08 0.179E-07 -.882E+03   0.107E-19 -.367E-19 -.847E+00   -.129E-11 -.484E-12 0.412E-01
   0.368E-07 -.145E-08 0.137E+02   0.180E-07 0.722E-08 -.138E+02   -.499E-19 0.355E-19 0.146E+00   -.194E-12 -.394E-12 -.346E-01
   0.283E-07 0.763E-08 -.863E+03   0.746E-08 0.182E-07 0.862E+03   0.101E-19 0.729E-19 0.115E+01   0.750E-12 0.695E-12 -.811E-01
   0.174E-07 -.198E-07 -.185E+04   -.488E-08 -.150E-07 0.186E+04   -.221E-18 0.707E-20 -.626E+01   0.109E-11 0.512E-12 -.240E-01
   0.364E-07 -.198E-07 -.185E+04   0.150E-07 -.150E-07 0.186E+04   -.128E-18 0.174E-19 -.626E+01   -.372E-12 0.856E-13 -.240E-01
   0.364E-07 -.756E-09 -.185E+04   0.150E-07 0.490E-08 0.186E+04   -.848E-19 -.698E-19 -.626E+01   -.344E-12 -.507E-12 -.240E-01
   0.174E-07 -.755E-09 -.185E+04   -.488E-08 0.490E-08 0.186E+04   -.772E-19 -.288E-19 -.626E+01   0.107E-11 -.618E-12 -.240E-01
 -----------------------------------------------------------------------------------------------
   0.158E-05 -.394E-06 0.140E+02   0.597E-13 0.226E-13 0.500E-11   -.433E-18 -.604E-19 -.133E+02   0.358E-11 -.491E-11 -.772E+00


 POSITION                                       TOTAL-FORCE (eV/Angst)
 -----------------------------------------------------------------------------------
      0.75660      5.29623      9.52809        -0.000000     -0.000000     -0.006639
      3.78302      5.29623      9.52809         0.000000      0.000000     -0.006639
      3.78302      2.26981      9.52809        -0.000000      0.000000     -0.006639
      0.75660      2.26981      9.52809         0.000000      0.000000     -0.006639
      0.75660      2.26981      1.07000         0.000000      0.000000      2.091751
      2.26981      0.75660      3.21000         0.000000      0.000000     -0.335583
      0.75660      2.26981      5.38253        -0.000000      0.000000     -0.000508
      2.26981      0.75660      7.52131        -0.000000     -0.000000      0.003040
      0.75660      5.29623      1.07000         0.000000     -0.000000      2.091751
      2.26981      3.78302      3.21000         0.000000      0.000000     -0.335583
      0.75660      5.29623      5.38253         0.000000      0.000000     -0.000508
      2.26981      3.78302      7.52131        -0.000000      0.000000      0.003040
      3.78302      2.26981      1.07000        -0.000000      0.000000      2.091751
      5.29623      0.75660      3.21000         0.000000     -0.000000     -0.335583
      3.78302      2.26981      5.38253        -0.000000      0.000000     -0.000508
      5.29623      0.75660      7.52131         0.000000     -0.000000      0.003040
      3.78302      5.29623      1.07000         0.000000     -0.000000      2.091751
      5.29623      3.78302      3.21000        -0.000000     -0.000000     -0.335583
      3.78302      5.29623      5.38253        -0.000000      0.000000     -0.000508
      5.29623      3.78302      7.52131        -0.000000      0.000000      0.003040
      2.26981      0.75660      1.07000         0.000000      0.000000     -1.280036
      0.75660      2.26981      3.21000         0.000000     -0.000000     -0.480650
      2.26981      0.75660      5.35949        -0.000000      0.000000      0.005609
      0.75660      2.26981      7.50779         0.000000     -0.000000      0.000654
      2.26981      3.78302      1.07000         0.000000      0.000000     -1.280036
      0.75660      5.29623      3.21000         0.000000     -0.000000     -0.480650
      2.26981      3.78302      5.35949        -0.000000     -0.000000      0.005609
      0.75660      5.29623      7.50779         0.000000      0.000000      0.000654
      5.29623      0.75660      1.07000         0.000000     -0.000000     -1.280036
      3.78302      2.26981      3.21000         0.000000     -0.000000     -0.480650
      5.29623      0.75660      5.35949        -0.000000      0.000000      0.005609
      3.78302      2.26981      7.50779         0.000000     -0.000000      0.000654
      5.29623      3.78302      1.07000        -0.000000     -0.000000     -1.280036
      3.78302      5.29623      3.21000         0.000000     -0.000000     -0.480650
      5.29623      3.78302      5.35949        -0.000000     -0.000000      0.005609
      3.78302      5.29623      7.50779         0.000000      0.000000      0.000654
      2.26981      0.75660      9.71936         0.000000      0.000000      0.002362
      5.29623      0.75660      9.71936         0.000000      0.000000      0.002362
      5.29623      3.78302      9.71936        -0.000000     -0.000000      0.002362
      2.26981      3.78302      9.71936        -0.000000     -0.000000      0.002362
 -----------------------------------------------------------------------------------
    total drift:                                0.000002     -0.000000      0.014050


--------------------------------------------------------------------------------------------------------



  FREE ENERGIE OF THE ION-ELECTRON SYSTEM (eV)
  ---------------------------------------------------
  free  energy   TOTEN  =      -367.92141972 eV

  energy  without entropy=     -367.83207332  energy(sigma->0) =     -367.87674652

 d Force = 0.8530109E-06[-0.651E-06, 0.236E-05]  d Energy = 0.3284411E-04-0.320E-04
 d Force =-0.2635938E+00[-0.264E+00,-0.264E+00]  d Ewald  =-0.2635938E+00-0.220E-09


--------------------------------------------------------------------------------------------------------


    POTLOK:  cpu time      0.0361: real time      0.0363


--------------------------------------------------------------------------------------------------------




--------------------------------------------------------------------------------------------------------


  
 reached required accuracy - stopping structural energy minimisation
     LOOP+:  cpu time     15.5296: real time     15.6514
    4ORBIT:  cpu time      0.0000: real time      0.0000

 total amount of memory used by VASP MPI-rank0    72296. kBytes
=======================================================================

   base      :      30000. kBytes
   nonl-proj :      22668. kBytes
   fftplans  :       2196. kBytes
   grid      :       7076. kBytes
   one-center:        622. kBytes
   wavefun   :       9734. kBytes

  
  
 General timing and accounting informations for this job:
 ========================================================
  
                  Total CPU time used (sec):     1410.943
                            User time (sec):     1394.056
                          System time (sec):       16.888
                         Elapsed time (sec):     1460.875
  
                   Maximum memory used (kb):      201324.
                   Average memory used (kb):          N/A
  
                          Minor page faults:       310377
                          Major page faults:          212
                 Voluntary context switches:         5646
